LAMMPS data file via write_data, version 5 Sep 2018, timestep = 0

3375 atoms
1 atom types
3250 bonds
1 bond types
3125 angles
1 angle types

-3.8131873000000006e+01 3.8131873000000006e+01 xlo xhi
-3.8131873000000006e+01 3.8131873000000006e+01 ylo yhi
-3.8131873000000006e+01 3.8131873000000006e+01 zlo zhi

Masses

1 147.28

Atoms # angle

748 28 1 -3.0238266359318192e+01 -3.2540909380829376e+01 -2.9087924557353315e+01 0 -1 -1
747 28 1 -3.4096860222335174e+01 -3.0983503888790324e+01 -2.9262918998403347e+01 0 -1 -1
2126 79 1 -2.8953358924191022e+01 -3.3773799717580061e+01 -3.5256921053854107e+01 1 0 1
746 28 1 -3.6435588389819507e+01 -2.9628315373530199e+01 -3.2069087193562709e+01 0 -1 -1
749 28 1 -2.8577879823511367e+01 -2.9381299234452474e+01 -2.9312583566215373e+01 0 -1 -1
1154 43 1 -3.3786346058346410e+01 -4.7933825404259665e+00 -3.7666557859720854e+01 0 -1 -1
2125 79 1 -3.2379091769210333e+01 -3.3502142063089472e+01 -3.5288489747529880e+01 1 0 1
1658 62 1 -3.1741625361945790e+01 -1.8822317089383958e+01 -1.9857105945010154e+01 0 1 -1
3207 119 1 -3.6837225480231631e+01 -3.6268395538469193e+01 -2.9864017482546153e+01 0 0 -4
2124 79 1 -3.5952195998106106e+01 -3.4455407910001206e+01 -3.4951311224645302e+01 1 0 1
2700 100 1 -2.4836102762673669e+01 -3.5173532674310039e+01 -3.2108209264631832e+01 -1 1 1
1255 47 1 -1.8915921367140701e+01 -3.2561289791550990e+01 -2.9840609272105365e+01 0 1 0
1253 47 1 -2.3520065270024581e+01 -3.0436952844309538e+01 -3.6812581007168383e+01 0 1 0
2323 87 1 -3.7039068148987241e+01 -1.0341542893903632e+01 -2.8629128131178049e+01 -2 -2 -1
1254 47 1 -2.0937472523526175e+01 -3.1547647444311345e+01 -3.3795516672615122e+01 0 1 0
754 28 1 -2.2559311741364937e+01 -2.3041136064801861e+01 -3.7631730570114328e+01 0 -1 -1
1256 47 1 -1.4427466764960290e+01 -3.3720119226796250e+01 -2.9039508620585377e+01 0 1 0
1402 52 1 -1.4093938615796407e+01 -1.9377015981084824e+00 -3.6881057442603435e+01 -2 0 0
2684 100 1 -3.1113861793232530e+01 -2.4515130403348135e+01 -3.0867767525572397e+01 -1 1 1
2683 100 1 -3.2465773178381554e+01 -2.5936727220294671e+01 -2.8174992581476094e+01 -1 1 1
1243 47 1 -3.1141585544398026e+01 -2.4954407475213088e+01 -3.6822029499579479e+01 0 1 0
3023 112 1 -1.7897170764776821e+01 -1.6122961487439014e+01 -3.7817631586420944e+01 -2 -1 0
1244 47 1 -3.1969062223611090e+01 -2.8403818112770193e+01 -3.5065805075542471e+01 0 1 0
2555 95 1 -1.2959090343220950e+01 -4.8475083496932072e+00 -3.1609786663893829e+01 -2 -1 0
750 28 1 -2.6934241108623020e+01 -2.8773530568482762e+01 -3.2634110878661545e+01 0 -1 -1
751 28 1 -2.5395793435988139e+01 -2.4796410082526862e+01 -3.3943643161531689e+01 0 -1 -1
2750 102 1 -3.6118486985170740e+01 -2.2098391767923783e+01 -3.1650267751179868e+01 -1 1 0
3343 124 1 -1.3552031471990571e+01 -1.1172460943067446e+01 -2.7300013939347171e+01 1 0 0
752 28 1 -2.1772870451231967e+01 -2.6048223702068817e+01 -3.3725037425531184e+01 0 -1 -1
2690 100 1 -1.6022827097067410e+01 -2.0171825911297194e+01 -2.7784220264709855e+01 -1 1 1
2689 100 1 -1.7082306051470688e+01 -2.3364850389539932e+01 -2.9826086145252923e+01 -1 1 1
753 28 1 -1.9152820289439873e+01 -2.4472358428570757e+01 -3.6115121433278425e+01 0 -1 -1
706 27 1 -1.9997307896746353e+01 -3.7140534180711860e+01 -3.2905784087978347e+01 2 -1 -1
2688 100 1 -1.9160316588111034e+01 -2.6531747777871153e+01 -2.8888507302160924e+01 -1 1 1
1385 52 1 -1.7904493197402154e+01 -1.0615682945427949e+01 -3.6692484038617941e+01 -2 0 0
2326 87 1 -3.3298071351317304e+01 -1.7149672335012557e+01 -3.6328566262507266e+01 -2 -2 -1
2325 87 1 -3.5177482391638456e+01 -1.4111264669245234e+01 -3.5461584077050638e+01 -2 -2 -1
2560 95 1 -2.5685792014525276e+01 -1.3405196881069173e+01 -3.6382967635699089e+01 -2 -1 0
2561 95 1 -2.6856703690849521e+01 -1.1792990581109041e+01 -3.2669864541088081e+01 -2 -1 0
2324 87 1 -3.5298513168850093e+01 -1.1568713026322772e+01 -3.1779418450969064e+01 -2 -2 -1
1404 52 1 -1.7684096231390175e+01 -5.4377183961592692e+00 -3.7854681597845378e+01 -2 0 0
2562 95 1 -3.0770198333681453e+01 -1.1458376734022959e+01 -3.0021612506356472e+01 -2 -1 0
2330 87 1 -2.5019095352537317e+01 -1.7516423232986345e+01 -3.3835310749031173e+01 -2 -2 -1
2329 87 1 -2.7728232575697071e+01 -1.9465683710232696e+01 -3.1793450243565168e+01 -2 -2 -1
2327 87 1 -3.2862572819833765e+01 -1.7016785894780725e+01 -3.2316789615554406e+01 -2 -2 -1
3345 124 1 -1.3500906246279101e+01 -1.6751235055652476e+01 -3.2298035613504148e+01 1 0 0
713 27 1 -2.4647550934855879e+01 -3.7778273641137254e+01 -1.9566654810561715e+01 2 -1 -1
2332 87 1 -2.0944854075802805e+01 -1.4699662240601398e+01 -3.3352738821617343e+01 -2 -2 -1
2331 87 1 -2.1093225263839162e+01 -1.8976550141280985e+01 -3.3267213319168292e+01 -2 -2 -1
1384 52 1 -1.4826777527984348e+01 -1.0759949975016401e+01 -3.5185115539128248e+01 -2 0 0
2333 87 1 -2.0263214981572119e+01 -1.1283758022433766e+01 -3.1218190674232396e+01 -2 -2 -1
3024 112 1 -1.6274722880749628e+01 -1.9465133484713370e+01 -3.5978947087276346e+01 -2 -1 0
2334 87 1 -2.3226356684891186e+01 -9.0881008538709160e+00 -2.9367615044652631e+01 -2 -2 -1
2559 95 1 -2.4388381157316516e+01 -1.0133244715955996e+01 -3.6941733543896902e+01 -2 -1 0
1157 43 1 -2.9779527107795939e+01 -7.3611167697766042e+00 -3.3627492457982200e+01 0 -1 -1
1156 43 1 -3.1296861754533033e+01 -3.6229730297587608e+00 -3.3675325369527997e+01 0 -1 -1
1158 43 1 -2.6873497610544931e+01 -5.0333899660930825e+00 -3.2322491788515087e+01 0 -1 -1
1159 43 1 -2.7302585768379583e+01 -3.0728758936253513e+00 -2.9580850605995757e+01 0 -1 -1
2564 95 1 -3.3274272014527952e+01 -5.6161620501500806e+00 -2.9579261270594859e+01 -2 -1 0
1236 46 1 -2.5915935438232417e+01 -1.7276935941929352e+00 -3.6460090828661009e+01 -1 -1 1
2565 95 1 -3.7410455508604947e+01 -4.8797348101657434e+00 -3.0941315865543334e+01 -2 -1 0
1153 43 1 -3.6507966206872808e+01 -8.0410671688266362e+00 -3.6649894003797925e+01 0 -1 -1
2553 95 1 -1.6097093411815688e+01 -1.3494734634010825e+00 -2.8232782722541600e+01 -2 -1 0
2558 95 1 -2.2154183347193012e+01 -6.6186495044526019e+00 -3.5553770861324615e+01 -2 -1 0
1234 46 1 -2.1498159715710951e+01 -3.4392768787051864e-01 -3.6296321668847852e+01 -1 -1 1
2556 95 1 -1.5825857382976611e+01 -6.7244375592550547e+00 -3.0063528522232399e+01 -2 -1 0
2735 102 1 -3.8036582430608917e+01 -3.6772180021023928e+00 -2.5150999216315878e+01 -1 1 0
2557 95 1 -1.9704783993002742e+01 -6.0607609530910196e+00 -3.1918516042351389e+01 -2 -1 0
650 25 1 -3.7193956615202772e+01 -7.4124197495094535e-01 -1.9867830207269606e+01 1 -1 2
1160 43 1 -2.3848400533335578e+01 -2.3535153343484865e+00 -2.8781410619542228e+01 0 -1 -1
1616 60 1 -3.2750399825661063e+01 -5.0617311985698166e+00 -2.3486719230919995e+01 0 0 -3
1233 46 1 -1.8785024149347066e+01 -7.5382223773132750e-02 -3.3802532674342395e+01 -1 -1 1
1613 60 1 -2.4993461214751690e+01 -3.0976922089760777e+00 -2.2475962149051377e+01 0 0 -3
3211 119 1 -2.9086924462939518e+01 -3.5813905559979638e+01 -2.5160478602076168e+01 0 0 -4
2833 105 1 -3.6229867678985741e+01 -3.3884903873480781e+01 -2.4468072743242288e+01 1 0 0
3212 119 1 -2.8872111123125912e+01 -3.2106140245017059e+01 -2.3039876637353291e+01 0 0 -4
3213 119 1 -3.2426019499767015e+01 -2.9890840779937612e+01 -2.3922432259130453e+01 0 0 -4
2832 105 1 -3.6242747682828508e+01 -3.2540362364845038e+01 -2.0394193801063491e+01 1 0 0
2699 100 1 -2.4384937336649251e+01 -3.3847042235432902e+01 -2.7953763146156852e+01 -1 1 1
1610 60 1 -3.1697601567089666e+01 -1.2565221955371371e+00 -2.7218763854294302e+01 0 0 -3
3208 119 1 -3.3361319997357761e+01 -3.7482557403563341e+01 -2.8272857091760006e+01 0 0 -4
2747 102 1 -3.7517563120148871e+01 -2.7657744939690318e+01 -2.2026107055758587e+01 -1 1 0
2697 100 1 -2.2323948158664159e+01 -3.1883509884587042e+01 -2.1726436084773233e+01 -1 1 1
2698 100 1 -2.3550217710990943e+01 -3.3865137149582154e+01 -2.4546383110168360e+01 -1 1 1
1208 45 1 -1.8880888890928297e+01 -3.5452720061811156e+01 -2.4683143676917648e+01 -1 0 -2
1209 45 1 -1.7569822419839436e+01 -3.1548008144055213e+01 -2.3976272018814868e+01 -1 0 -2
1210 45 1 -1.4856366457935003e+01 -3.0704164624383566e+01 -2.1505755046659818e+01 -1 0 -2
2742 102 1 -3.5579289215936932e+01 -1.9732379987147578e+01 -2.6529218656098077e+01 -1 1 0
2685 100 1 -2.7454707279805120e+01 -2.3757082593083595e+01 -2.8967589980471814e+01 -1 1 1
2682 100 1 -3.1947599348843632e+01 -2.3523375198028646e+01 -2.5468481376450747e+01 -1 1 1
721 27 1 -1.5073811541394186e+01 -3.6094759029065720e+01 -2.0151018299602864e+01 2 -1 -1
392 15 1 -1.5566789046108529e+01 -2.8674162999437456e+01 -3.3074729253275279e+01 -1 0 0
2681 100 1 -3.0393491852808879e+01 -1.9818751906528288e+01 -2.4755818688756257e+01 -1 1 1
2680 100 1 -2.6274478545719440e+01 -2.0426802779844628e+01 -2.4289212735955680e+01 -1 1 1
2679 100 1 -2.7688399565727142e+01 -2.3645274248528509e+01 -2.1818978822768802e+01 -1 1 1
2686 100 1 -2.5161130786022014e+01 -2.5483921716876377e+01 -2.5843974838378685e+01 -1 1 1
1211 45 1 -1.4191234883487706e+01 -2.9106458903119623e+01 -2.4555904848315755e+01 -1 0 -2
2696 100 1 -2.1277448810382587e+01 -2.8015295170329590e+01 -2.2208751034656416e+01 -1 1 1
2687 100 1 -2.2762059823316257e+01 -2.8537158253671734e+01 -2.8560849480815826e+01 -1 1 1
2693 100 1 -2.1619559681569754e+01 -2.0126692555304988e+01 -2.6394042216888590e+01 -1 1 1
2694 100 1 -2.0757527706995031e+01 -2.1215686927833914e+01 -2.2147392598753420e+01 -1 1 1
2695 100 1 -2.0419715237152019e+01 -2.4636435521750936e+01 -2.1003339077220573e+01 -1 1 1
129 5 1 -1.3781171270342373e+01 -4.8893754155698872e+00 -2.3521824375123451e+01 2 0 0
2338 87 1 -3.5149008704710639e+01 -1.0305561763744425e+01 -2.2757872142282388e+01 -2 -2 -1
1665 62 1 -2.7084434912215844e+01 -1.4060070720830346e+01 -1.9142218800597981e+01 0 1 -1
2328 87 1 -3.0638888817515038e+01 -1.7502829586439734e+01 -2.9640257903830825e+01 -2 -2 -1
1657 62 1 -3.5416201235674727e+01 -1.6341770218781967e+01 -2.0892740790372752e+01 0 1 -1
2336 87 1 -2.7741392796887318e+01 -1.2601446794780060e+01 -2.4546278783567899e+01 -2 -2 -1
2337 87 1 -3.1269394556610216e+01 -1.2358166531266836e+01 -2.2114184759592135e+01 -2 -2 -1
2335 87 1 -2.4985840792716665e+01 -1.2286373632626361e+01 -2.7059741266999225e+01 -2 -2 -1
128 5 1 -1.7682292179807295e+01 -4.8718763328597205e+00 -2.1498707085217927e+01 2 0 0
651 25 1 -3.3184636457859085e+01 -1.0200524567560905e+00 -2.0535735383468271e+01 1 -1 2
2751 102 1 -3.6085614459647019e+01 -2.2027920445994955e+01 -3.5838902919281978e+01 -1 1 0
135 5 1 -1.5483977430593054e+01 -1.6074207193560490e+01 -2.1682246062453771e+01 2 0 0
2691 100 1 -1.7451499834462329e+01 -1.5921181931891574e+01 -2.8307158398543148e+01 -1 1 1
2692 100 1 -2.1104568815908344e+01 -1.6186329326439363e+01 -2.7731793858047521e+01 -1 1 1
3342 124 1 -1.5759150099046330e+01 -1.0889257703318499e+01 -2.3552376141541281e+01 1 0 0
3341 124 1 -1.8340500940545624e+01 -8.8947580698447233e+00 -2.5820576813372536e+01 1 0 0
1403 52 1 -1.4089382534910442e+01 -5.3412936506567519e+00 -3.7220610230239714e+01 -2 0 0
3339 124 1 -2.0859781120126001e+01 -1.4069743917759766e+01 -2.1649742251427707e+01 1 0 0
3340 124 1 -2.0740142829355275e+01 -1.0355021683375636e+01 -2.3550693708137917e+01 1 0 0
1664 62 1 -2.4805483721889111e+01 -1.7252239773333077e+01 -2.0152681811105161e+01 0 1 -1
1155 43 1 -3.4367782179492167e+01 -2.1339051471197763e+00 -3.5134976953143315e+01 0 -1 -1
1212 45 1 -1.6281409382688132e+01 -2.5829098504254347e+01 -2.4196685807438051e+01 -1 0 -2
2678 100 1 -2.7182636537855053e+01 -2.7714889131881293e+01 -2.0321934762196847e+01 -1 1 1
1617 60 1 -3.1648851495432282e+01 -6.1562872423631312e+00 -1.9891889794557517e+01 0 0 -3
2563 95 1 -3.0982315373666470e+01 -8.2693884104920592e+00 -2.7690075291436891e+01 -2 -1 0
1161 43 1 -2.0832472808852174e+01 -4.1987105721907199e+00 -2.5660147616016459e+01 0 -1 -1
391 15 1 -1.4952198046291784e+01 -3.1718414777157374e+01 -3.5818071744425197e+01 -1 0 0
2741 102 1 -3.5047031246808110e+01 -1.5748930795005901e+01 -2.6824274386316421e+01 -1 1 0
1615 60 1 -2.9039235654861393e+01 -5.1579599649999821e+00 -2.3228199789049309e+01 0 0 -3
1614 60 1 -2.5411669917931107e+01 -6.9082149023432287e+00 -2.3749785638635558e+01 0 0 -3
1653 62 1 -3.2999801824995487e+01 -2.6325806625465955e+01 -1.9615323335941365e+01 0 1 -1
1213 45 1 -1.3831452698642163e+01 -2.3022948524080636e+01 -2.3427391546605257e+01 -1 0 -2
3347 124 1 -1.3066749212803469e+01 -2.3565235064909182e+01 -3.4756726789719849e+01 1 0 0
3115 116 1 -3.4382217358010713e+01 -3.7583366546048822e+01 -2.1441091777563582e+01 2 0 0
2554 95 1 -1.2721442768721964e+01 -1.9652282814180353e+00 -2.9604327875256050e+01 -2 -1 0
2752 102 1 -3.8116155546443451e+01 -1.8469033288848919e+01 -3.4837571336440341e+01 -1 1 0
1058 40 1 -1.4141322772121768e+01 -1.5152724685297230e+00 -1.9123712563027276e+01 1 0 -1
153 6 1 -3.1917237460330739e+01 -3.0870345751765790e+01 -1.0227318291818467e+01 -3 1 -2
2674 100 1 -3.1702464502903489e+01 -3.5085370248854375e+01 -1.3893216119480146e+01 -1 1 1
715 27 1 -2.6566705717165625e+01 -3.6555093421215176e+01 -1.2591874976848096e+01 2 -1 -1
154 6 1 -2.7952757649556034e+01 -3.1531520738056898e+01 -1.1461482315297225e+01 -3 1 -2
160 6 1 -1.8506434684333396e+01 -2.4860396880028865e+01 -4.1885781903059460e-01 -3 1 -2
2677 100 1 -2.4847887648588774e+01 -2.8350217644669826e+01 -1.7188456519640550e+01 -1 1 1
1918 72 1 -1.8968251713756850e+01 -3.7957616181594815e+01 -4.6364659287801082e+00 0 1 -1
807 30 1 -1.4110237136677789e+01 -2.3546956471183314e+01 -7.2458777036469302e+00 0 -3 0
717 27 1 -2.2968133326921894e+01 -3.3029531048806767e+01 -1.6886242174032503e+01 2 -1 -1
716 27 1 -2.3828871435120860e+01 -3.3677960422967416e+01 -1.3713677587023909e+01 2 -1 -1
3329 124 1 -2.0200445812488631e+01 -2.8239711772655131e+01 -1.1865534185651635e+01 1 0 0
3330 124 1 -1.9431728348296083e+01 -3.1994553654924090e+01 -9.8106078990482963e+00 1 0 0
719 27 1 -1.7200029117880348e+01 -3.2499371522148721e+01 -1.6354602776598519e+01 2 -1 -1
720 27 1 -1.8450165922221103e+01 -3.5856339919142506e+01 -1.8571453999676638e+01 2 -1 -1
3328 124 1 -2.0312389749335285e+01 -2.5248588171431106e+01 -1.4637400852246442e+01 1 0 0
1479 55 1 -1.9638607487880954e+01 -3.7894489007015117e+01 -1.3114374676997308e+01 -1 0 1
1075 40 1 -1.3468175155709510e+01 -3.2343318782946398e+00 -7.9976269584450477e-01 1 0 -1
3331 124 1 -1.6153021447841542e+01 -3.3041329102103973e+01 -7.9390203608946193e+00 1 0 0
1480 55 1 -2.2186542998232213e+01 -3.7207304626607161e+01 -9.6049899112426420e+00 -1 0 1
718 27 1 -2.0359737973497452e+01 -3.1110211997172854e+01 -1.6454841335740852e+01 2 -1 -1
1659 62 1 -3.0681430352159854e+01 -2.1790124777827486e+01 -1.6660242676795747e+01 0 1 -1
155 6 1 -2.5477679235703135e+01 -2.7810152086805111e+01 -1.1638872178851209e+01 -3 1 -2
786 30 1 -2.4966637728063148e+01 -1.3155990441261380e+00 -8.6915605659119084e+00 0 -3 0
1652 62 1 -3.3297498382716682e+01 -2.8450730819182482e+01 -1.6456311649162497e+01 0 1 -1
1651 62 1 -3.5661449188995995e+01 -2.7395209539987668e+01 -1.3384043722247856e+01 0 1 -1
1660 62 1 -2.9386087149383336e+01 -2.5170460126641657e+01 -1.4549087758501912e+01 0 1 -1
1648 62 1 -3.3508725929310565e+01 -1.7877446357814645e+01 -1.0197042845961908e+01 0 1 -1
1649 62 1 -3.5276638523691311e+01 -2.0378454339305829e+01 -1.2875559484417346e+01 0 1 -1
1661 62 1 -2.5635878687458789e+01 -2.3261560319688584e+01 -1.4007291640604553e+01 0 1 -1
1650 62 1 -3.6744070182105190e+01 -2.3660457840859046e+01 -1.2969772098409168e+01 0 1 -1
1485 55 1 -3.5173280213959742e+01 -3.3680857735339544e+01 -1.7554121333396235e+00 -1 0 1
1438 54 1 -2.3715862584338772e+01 -6.3559809111785022e+00 -7.1445819919459073e+00 -1 -1 1
1481 55 1 -2.4761714406184581e+01 -3.6845217566658512e+01 -6.9579268765290285e+00 -1 0 1
1662 62 1 -2.4703379375917994e+01 -2.3479646657451170e+01 -1.7547279375050888e+01 0 1 -1
3326 124 1 -1.9631386931221090e+01 -2.0352838159026160e+01 -1.2095597347194925e+01 1 0 0
3327 124 1 -1.8024306570398540e+01 -2.4184740238114834e+01 -1.1475424498779573e+01 1 0 0
3335 124 1 -1.6084666745173283e+01 -2.4722664239000650e+01 -1.7609024805124488e+01 1 0 0
1663 62 1 -2.4514795303413159e+01 -1.9512465666523052e+01 -1.6833811084371607e+01 0 1 -1
3337 124 1 -1.9434718802963481e+01 -1.8816019879368262e+01 -1.6964077428468595e+01 1 0 0
156 6 1 -2.3886571023843022e+01 -2.5230640910165985e+01 -8.8582537303439715e+00 -3 1 -2
3349 125 1 -3.4161550664112369e+01 -1.5227882781804070e+01 -1.4865416067225548e+01 -1 -1 2
3350 125 1 -3.1505947393117005e+01 -1.2275673360133307e+01 -1.6127966323038088e+01 -1 -1 2
3351 125 1 -2.9856398521870084e+01 -1.5114325802574808e+01 -1.4319881345199107e+01 -1 -1 2
1618 60 1 -3.2764703855811078e+01 -5.8362024124932574e+00 -1.6071691820677941e+01 0 0 -3
3352 125 1 -2.8627273921570271e+01 -1.8466769520718778e+01 -1.1776077983104829e+01 -1 -1 2
268 10 1 -3.1463942014247017e+01 -9.5727467692896617e+00 -7.6808601456721277e+00 0 -2 0
269 10 1 -3.5110375211838189e+01 -1.1209783557050578e+01 -8.1390179419109128e+00 0 -2 0
263 10 1 -2.1346819820659100e+01 -1.6161596493927572e+01 -1.2730779220326875e+00 0 -2 0
3325 124 1 -2.2370644617701082e+01 -1.7942851283336474e+01 -1.2066264837524335e+01 1 0 0
802 30 1 -1.4556567283646235e+01 -1.8868798122974273e+01 -1.2252807403385932e+01 0 -3 0
3324 124 1 -2.3986456665057624e+01 -1.4590429839130479e+01 -1.3583610239952128e+01 1 0 0
3323 124 1 -2.5015904598754332e+01 -1.1386527474253018e+01 -1.3323637647997767e+01 1 0 0
801 30 1 -1.4424636124769826e+01 -1.5365280111026124e+01 -1.3452537045476317e+01 0 -3 0
800 30 1 -1.7343413393021926e+01 -1.2439302177435785e+01 -1.3361846499416686e+01 0 -3 0
3 1 1 -3.7673554242028970e+01 -5.2119687697338506e+00 -7.9907726669987618e+00 -1 -2 -1
1437 54 1 -2.0469078949687681e+01 -5.6647058813540880e+00 -8.4830531636621949e+00 -1 -1 1
1619 60 1 -2.9036751582793912e+01 -7.6061489800187445e+00 -1.3690836159395102e+01 0 0 -3
126 5 1 -2.1667753244258130e+01 -6.5624439236767529e-01 -1.7626915439762612e+01 2 0 0
1164 44 1 -2.9857620227845246e+01 -9.2054127777921479e-01 -1.5617206880317696e+01 0 -1 1
1163 44 1 -2.7914347926415711e+01 -2.1282849074978856e+00 -1.8244853585270761e+01 0 -1 1
3333 124 1 -1.4328656747028436e+01 -2.8557417645530819e+01 -1.2258715409928064e+01 1 0 0
1 1 1 -3.6814921445942716e+01 -8.0319107821385209e+00 -1.2455837646622960e+01 -1 -2 -1
2340 87 1 -3.7506048396162477e+01 -6.2690243975403099e+00 -1.8850269893554401e+01 -2 -2 -1
1165 44 1 -3.1082981191869827e+01 -1.3967257587525097e+00 -1.1921046153569446e+01 0 -1 1
1620 60 1 -2.7843000311587836e+01 -5.2702319048599264e+00 -1.1324290390265087e+01 0 0 -3
793 30 1 -3.4742829607068337e+01 -1.4797832537449665e+01 -3.6305089694057200e+00 0 -3 0
785 30 1 -2.4213896692739564e+01 -1.2792967078011728e+00 -1.2321140317250421e+01 0 -3 0
1669 62 1 -1.4026558980103232e+01 -1.1752942523095843e+01 -1.8250961301080572e+01 0 1 -1
1162 44 1 -2.5490505045117942e+01 -4.7226880109117673e+00 -1.6281718368893653e+01 0 -1 1
1078 40 1 -1.4275969432065246e+01 -5.1098222565239908e+00 -7.1070588723544175e+00 1 0 -1
1436 54 1 -1.7925931330334961e+01 -4.6067107674178800e+00 -1.0846549738205281e+01 -1 -1 1
1435 54 1 -1.6118710841288785e+01 -2.5316532429737677e+00 -1.3391628876196977e+01 -1 -1 1
152 6 1 -3.5838889324148298e+01 -3.2011598963273954e+01 -8.8602766437951779e+00 -3 1 -2
1654 62 1 -3.5329265011715300e+01 -2.2899193956621158e+01 -1.8979423829205981e+01 0 1 -1
1079 40 1 -1.3742766350178940e+01 -8.5317163212291902e+00 -8.9214659851527340e+00 1 0 -1
1439 54 1 -2.2308901724627585e+01 -5.5396417000107974e+00 -3.6057149930355972e+00 -1 -1 1
1482 55 1 -2.8745019140948266e+01 -3.5743628068067814e+01 -6.9444661057999593e+00 -1 0 1
1483 55 1 -3.2599922263473708e+01 -3.6755197700633445e+01 -7.6832874222188483e+00 -1 0 1
1484 55 1 -3.2858608299069061e+01 -3.4024118492212558e+01 -4.9672999514092533e+00 -1 0 1
2370 88 1 -1.3756514668869080e+01 -1.0417834519779728e+01 -5.7917666084627462e-01 2 0 0
3361 125 1 -2.7120889260296252e+01 -2.9237844101418133e+01 -6.2311992749991223e+00 -1 -1 2
1919 72 1 -2.0441497995168941e+01 -3.4424090282585233e+01 -3.0782731200203797e+00 0 1 -1
1059 40 1 -1.3845847094285954e+01 -5.2365926422788931e+00 -1.8191930494615178e+01 1 0 -1
2339 87 1 -3.6357654680199552e+01 -9.8384897818173371e+00 -1.8639281107562166e+01 -2 -2 -1
2059 77 1 -1.4644105949587583e+01 -3.1330788246106650e+01 -2.8618385895360055e+00 -1 -3 0
3360 125 1 -2.3479297791560960e+01 -3.0914856857287869e+01 -5.9326248591177881e+00 -1 -1 2
1802 67 1 -1.8813831571856046e+01 -7.2066385665220878e-01 -5.6567563780950003e+00 -1 0 -2
3359 125 1 -2.3836454266878416e+01 -2.9575200469010628e+01 -1.7811010508014502e+00 -1 -1 2
3354 125 1 -3.1202380088250820e+01 -2.5674666336273759e+01 -8.9460931496353009e+00 -1 -1 2
3356 125 1 -3.4698556292587398e+01 -2.8268033240754839e+01 -3.6492884842649973e+00 -1 -1 2
3355 125 1 -3.2162052411313681e+01 -2.6201154308229700e+01 -6.0596407496260296e+00 -1 -1 2
532 20 1 -3.5545760416019917e+01 -2.1297460806693412e+01 -6.1924737593506043e+00 1 -1 0
3364 125 1 -3.2989747906806642e+01 -2.1744974155929270e+01 -1.2850275871074193e+00 -1 -1 2
3363 125 1 -2.9243068370847968e+01 -2.2643591165163077e+01 -2.4761225814103156e+00 -1 -1 2
3362 125 1 -2.6871583499935781e+01 -2.5449455082424212e+01 -4.6921170083459023e+00 -1 -1 2
3365 125 1 -3.6298063758448592e+01 -2.3299444421404345e+01 -1.0621916267228779e+00 -1 -1 2
3338 124 1 -1.9791276998928979e+01 -1.4883455143341173e+01 -1.7879886469723083e+01 1 0 0
3332 124 1 -1.3188048945145511e+01 -3.1986992234677643e+01 -1.0891371093380714e+01 1 0 0
162 6 1 -1.8142441111428329e+01 -2.7944787725906160e+01 -6.7395268777754893e+00 -3 1 -2
161 6 1 -1.8850946704173531e+01 -2.7803189666135317e+01 -2.9508248458805815e+00 -3 1 -2
806 30 1 -1.7127476733748438e+01 -2.1104979106411307e+01 -5.8069342303762177e+00 0 -3 0
157 6 1 -2.2843884151199571e+01 -2.1526867996370349e+01 -7.9324804648160470e+00 -3 1 -2
158 6 1 -2.2667116563973032e+01 -2.1545747537459047e+01 -3.8197929663838854e+00 -3 1 -2
805 30 1 -1.8681966519784620e+01 -1.8057189048640410e+01 -5.0225790666654682e+00 0 -3 0
1667 62 1 -2.1310106279904929e+01 -9.7304406528931473e+00 -1.8155466896579799e+01 0 1 -1
804 30 1 -1.5696071481305580e+01 -1.5803006674471817e+01 -5.9431752743742221e+00 0 -3 0
3353 125 1 -2.9613760224008207e+01 -2.2028459427552715e+01 -9.2115352583271015e+00 -1 -1 2
2675 100 1 -3.0342754555115071e+01 -3.3804408201547844e+01 -1.7738940458397909e+01 -1 1 1
267 10 1 -2.9681790445233759e+01 -1.1963663314094816e+01 -1.0033697204553047e+01 0 -2 0
792 30 1 -3.1545921835217019e+01 -1.2211113489101248e+01 -2.6128317989445091e+00 0 -3 0
794 30 1 -3.1371059386063603e+01 -1.5955384253286461e+01 -5.1652134002829602e+00 0 -3 0
795 30 1 -2.7864772804938433e+01 -1.6676160320070402e+01 -5.2928188660736675e+00 0 -3 0
796 30 1 -2.4438930893155856e+01 -1.6362098366066906e+01 -6.6360679007204553e+00 0 -3 0
4 1 1 -3.6531942480376905e+01 -2.8014303828699951e+00 -5.1444226525058729e+00 -1 -2 -1
270 10 1 -3.7247038473383050e+01 -9.5364284186430517e+00 -5.1350480304572663e+00 0 -2 0
803 30 1 -1.6601669714188017e+01 -1.7352368760462120e+01 -9.6170422673772187e+00 0 -3 0
799 30 1 -1.9995764079005944e+01 -1.1620702872593373e+01 -1.1236049066645919e+01 0 -3 0
798 30 1 -1.8479546262021788e+01 -1.1456606754830801e+01 -7.7950842661800284e+00 0 -3 0
797 30 1 -2.1486025448945252e+01 -1.3912455008611690e+01 -7.0964357346426103e+00 0 -3 0
265 10 1 -2.4974189860590691e+01 -1.1124476629829420e+01 -3.2063277322038357e+00 0 -2 0
1655 62 1 -3.7505873790997370e+01 -2.0442676626016095e+01 -1.7425350510427958e+01 0 1 -1
2 1 1 -3.4314179683561392e+01 -5.8462725320614126e+00 -9.8789957613663759e+00 -1 -2 -1
2676 100 1 -2.8023076143247224e+01 -3.1400829785923907e+01 -1.7120457976369760e+01 -1 1 1
2915 108 1 -3.2056864653716559e+01 -5.0515007969615056e+00 -3.0969618471425173e+00 1 -1 -1
2914 108 1 -3.3874720865499441e+01 -7.4187991661588590e+00 -1.2688971713761714e+00 1 -1 -1
266 10 1 -2.7054190752442167e+01 -1.0835808064451669e+01 -6.9271443452958197e+00 0 -2 0
2916 108 1 -2.8831028708534166e+01 -4.8963061788752782e+00 -5.6253271688161730e+00 1 -1 -1
3358 125 1 -2.7444543766684475e+01 -2.9068428554191755e+01 -3.1368083991801043e-01 -1 -1 2
3334 124 1 -1.4541125333234785e+01 -2.8079622533644063e+01 -1.6555953618872088e+01 1 0 0
3322 124 1 -2.2850961135276158e+01 -7.5081058944903134e+00 -1.3215181752689766e+01 1 0 0
530 20 1 -3.7367281868407410e+01 -2.6311500750115890e+01 -8.1274097117210893e+00 1 -1 0
151 6 1 -3.7089584617321435e+01 -3.4059406858350371e+01 -1.1450181234488735e+01 -3 1 -2
159 6 1 -2.2223933118056994e+01 -2.4170495286774184e+01 -1.6153037278855489e+00 -3 1 -2
2369 88 1 -1.6669599963905686e+01 -7.9736758786749107e+00 -1.4772846139134783e+00 2 0 0
1644 61 1 -1.3104209769803020e+01 -2.5440601021943298e+01 -1.3582551345542944e+00 -1 0 -3
893 34 1 -1.4143872009269764e+01 -3.7121071952287380e+01 -1.1072776851536261e+01 -1 -1 0
2831 105 1 -3.6350392063627517e+01 -3.4962971574595102e+01 -1.6668148376347862e+01 1 0 0
3336 124 1 -1.6944501077039046e+01 -2.1485200559692601e+01 -1.7872620511099136e+01 1 0 0
3357 125 1 -3.1678059376596014e+01 -2.9513439968477108e+01 -1.3481130840442197e+00 -1 -1 2
1668 62 1 -1.7472420280388441e+01 -9.0186728470247637e+00 -1.7475611733264401e+01 0 1 -1
1166 44 1 -3.1376570019983284e+01 -7.5926778748588220e-02 -8.1600949481552636e+00 0 -1 1
2058 77 1 -1.5839889570113872e+01 -3.4789777400846233e+01 -1.4527877958972448e+00 -1 -3 0
1440 54 1 -2.3198967363870814e+01 -2.2905782196715236e+00 -2.1153866847119049e+00 -1 -1 1
264 10 1 -2.1605756621742898e+01 -1.2280664037070423e+01 -9.7146742588618951e-01 0 -2 0
127 5 1 -2.0471060064989761e+01 -4.4011730464997427e+00 -1.8557644070779830e+01 2 0 0
791 30 1 -2.8775848896798003e+01 -1.0421677835946294e+01 -1.0200832678515337e-01 0 -3 0
1666 62 1 -2.5154474780647440e+01 -1.0196191214940864e+01 -1.8975381172959334e+01 0 1 -1
1924 72 1 -2.6166483502221141e+01 -2.9435448440056057e+01 7.2003733784057049e+00 0 1 -1
1922 72 1 -3.0802184902219878e+01 -3.4353817527412659e+01 1.3411873770198472e+00 0 1 -1
1923 72 1 -2.8925470032452786e+01 -3.2573292331459029e+01 4.8917025299275982e+00 0 1 -1
1939 72 1 -3.4917207492504645e+01 -3.2375542101668700e+01 5.4836149384573281e+00 0 1 -1
1937 72 1 -3.6731969697178165e+01 -2.6450387318212613e+01 3.3617698518992425e+00 0 1 -1
1938 72 1 -3.6609809640990576e+01 -3.0273726948830436e+01 2.6935240507054363e+00 0 1 -1
2987 111 1 -3.6598842372041965e+01 -7.3589024628619129e+00 5.9583990073914386e+00 0 1 -1
217 9 1 -2.3095461940382460e+01 -3.4015139224195082e+01 8.1367687611028590e+00 0 1 0
1703 64 1 -2.1307004015022002e+01 -2.9393578105949302e+01 3.9156885542709601e+00 -2 1 -1
1706 64 1 -1.5212176371848773e+01 -3.4242728652032838e+01 5.1310939850953581e+00 -2 1 -1
1704 64 1 -1.9663270835953814e+01 -3.1923617140245192e+01 1.6594936118979080e+00 -2 1 -1
220 9 1 -3.3128173169719290e+01 -3.6249270514707057e+01 1.2404678862495262e+01 0 1 0
1705 64 1 -1.8908064481758146e+01 -3.3466436279322174e+01 5.1039439602227619e+00 -2 1 -1
218 9 1 -2.6216437780836081e+01 -3.4144244312465304e+01 1.0350931518361261e+01 0 1 0
1804 67 1 -1.8257985710388766e+01 -1.4603907144181889e+00 1.0272502534458563e+00 -1 0 -2
2986 111 1 -3.6343715363031755e+01 -1.0140877967863283e+01 8.0053772983455236e+00 0 1 -1
2957 110 1 -1.2805406464666348e+01 -8.8760698825085278e+00 1.5909606612768627e+01 -1 0 2
1931 72 1 -3.1291905678517420e+01 -2.7553906344341591e+01 8.1737693673127509e+00 0 1 -1
1925 72 1 -2.6118817519439528e+01 -2.6357414407935117e+01 1.0233749919142335e+01 0 1 -1
432 16 1 -2.8345355383554043e+01 -2.0045764104083855e+01 8.2172225006064608e+00 0 -2 -1
2978 111 1 -2.5414994455397725e+01 -2.3029804016607656e+01 2.7704125660403678e+00 0 1 -1
2980 111 1 -3.1386434052579443e+01 -2.4784334084612205e+01 3.2727570515221829e+00 0 1 -1
2977 111 1 -2.5372701989134494e+01 -1.9654410175898239e+01 1.4157626038244540e+00 0 1 -1
2979 111 1 -2.8065210945005227e+01 -2.5825403677736908e+01 4.4329463125983120e+00 0 1 -1
2981 111 1 -3.4103720580293043e+01 -2.2533354364455086e+01 5.7712164436122393e+00 0 1 -1
3098 115 1 -3.4428250246242435e+01 -1.9129143662060628e+01 1.0612325493950808e+01 -3 0 2
2989 111 1 -3.4212153712980360e+01 -8.6457346228468879e-01 3.3225731514764836e+00 0 1 -1
1702 64 1 -2.0683093421404322e+01 -2.7755110410798633e+01 7.5363789645466017e+00 -2 1 -1
2306 86 1 -2.2907677815099092e+01 -2.2526974233839496e+01 7.9553755841175819e+00 -2 -2 1
2305 86 1 -2.0545814019666299e+01 -2.3392651180491839e+01 4.6123137413802224e+00 -2 -2 1
2304 86 1 -1.8348435132456856e+01 -2.1899940744831436e+01 7.1188567769962372e+00 -2 -2 1
1711 64 1 -1.5112968465080289e+01 -2.7024003133194746e+01 7.1700441247387339e+00 -2 1 -1
2303 86 1 -1.9383739469437401e+01 -1.8161238103449044e+01 8.3140843807114955e+00 -2 -2 1
1940 72 1 -3.4740843775197696e+01 -3.6428531828323671e+01 6.0918226723698847e+00 0 1 -1
261 10 1 -1.6406466763452741e+01 -1.8371156086090942e+01 6.6418422288905055e-01 0 -2 0
676 26 1 -1.3540494353483073e+01 -2.3933911411175046e-01 1.3410853639583793e+01 0 1 -4
2976 111 1 -2.7082199802014330e+01 -1.5778944559259489e+01 1.4815174156428152e+00 0 1 -1
2974 111 1 -3.4078650730963645e+01 -1.5698172302836415e+01 3.2898388029780010e+00 0 1 -1
2959 110 1 -1.3492203374387064e+01 -1.3027729341766449e+01 1.2017955770061251e+01 -1 0 2
2363 88 1 -2.8704985686033275e+01 -1.6143092366779399e-01 1.6524823529404557e+01 2 0 0
2975 111 1 -3.0376756222050766e+01 -1.7234265509231463e+01 3.4004785973144620e+00 0 1 -1
2912 108 1 -3.1587845406642771e+01 -1.0955509046126526e+01 4.9088435064521310e+00 1 -1 -1
452 17 1 -1.8869248386772600e+01 -3.6446876559152720e+01 1.1198418975083564e+01 1 -1 -1
2955 110 1 -1.4997249267568556e+01 -7.1511224079584359e+00 1.0086610578402622e+01 -1 0 2
2376 88 1 -2.7393617262696949e+01 -1.5301892407726374e+01 7.7692593046197098e+00 2 0 0
1502 56 1 -2.6730767805763747e+01 -1.0055947155885075e+01 1.1766284358322777e+01 -2 -2 1