ITEM: TIMESTEP
20000
ITEM: NUMBER OF ATOMS
3375
ITEM: BOX BOUNDS pp pp pp
-3.8131873000000006e+01 3.8131873000000006e+01
-3.8131873000000006e+01 3.8131873000000006e+01
-3.8131873000000006e+01 3.8131873000000006e+01
ITEM: ATOMS id mol type xu yu zu vx vy vz 
748 28 1 -32.1847 -110.304 -110.731 0.00219663 0.000618599 -0.000480704 
747 28 1 -35.7572 -109.13 -110.542 7.0377e-05 -0.00223956 -0.00120981 
1224 46 1 -101.104 -64.0229 38.6142 -0.00268224 -0.00023757 -8.67909e-05 
3207 119 1 -34.6831 -37.2284 -334.307 0.00119197 -4.6279e-05 -0.0005922 
3209 119 1 -34.3424 -31.3032 -332.232 -0.000206422 -0.00133838 0.000528052 
749 28 1 -28.9622 -109.755 -113.44 -2.4743e-05 -0.00112217 0.000352166 
2868 107 1 -71.5179 9.64876 -1.00206 0.0016889 -5.40331e-05 -0.00185321 
2698 100 1 -99.5677 40.9921 41.6933 0.00147827 0.000724275 -0.00109963 
1253 47 1 -18.1193 41.8298 -36.8055 0.00156112 -0.00055368 0.00185413 
2697 100 1 -100.432 41.8386 45.491 -0.000167109 -0.0010013 0.00141873 
2128 79 1 45.8088 -46.025 38.4627 0.000582285 -0.000193801 -0.00198664 
2688 100 1 -104.082 47.3323 44.6781 -0.00164979 -0.00223357 0.0002263 
1213 45 1 -94.4926 -35.6009 -179.253 -0.00200891 -0.00158679 0.000693953 
1255 47 1 -16.0971 41.6339 -32.5857 -0.000612447 -0.000733836 -0.00139993 
1254 47 1 -19.0437 44.1859 -34.0255 -0.001211 -0.000714324 -0.00274213 
3014 112 1 -161.312 -109.013 -34.5315 0.000406424 5.1129e-05 0.00108801 
3015 112 1 -163.713 -108.111 -31.6306 -0.00248577 -0.000222786 0.00324207 
1008 38 1 -276.841 -75.1501 -37.0215 0.00236348 -0.00144356 -0.00102831 
3013 112 1 -158.039 -112.303 -34.4904 0.000453209 -0.000185817 -0.000198426 
3012 112 1 -155.132 -110.444 -33.0564 0.000352814 0.000485821 0.00316509 
3011 112 1 -152.458 -108.352 -34.5915 0.00137034 -0.00183228 -0.000473069 
392 15 1 -81.0505 -35.3201 -27.9441 -0.00174516 0.00269413 0.00201336 
2215 83 1 2.01823 -113.093 -35.973 -0.00112645 -0.000249098 -0.00129007 
497 19 1 -143.229 -38.3827 -112.282 0.000682045 0.000541348 0.00011556 
2054 77 1 -102.203 -267.346 -1.09529 -0.000388925 0.00186623 0.000194985 
3143 117 1 6.64091 41.4888 -109.315 -0.000855569 -0.00124821 -0.00125858 
3142 117 1 9.14571 44.649 -108.832 0.00100918 -0.00238502 0.00161098 
3144 117 1 5.37693 41.3522 -106.028 0.000767916 0.00137607 0.00103873 
3010 112 1 -148.665 -107.924 -35.7934 0.00148863 -0.000221887 0.00135699 
2224 83 1 1.76391 -107.385 -28.3726 -0.00238377 -0.000356541 0.000110165 
3141 117 1 13.1737 43.7098 -108.42 -0.000692323 -0.000717985 -0.00303909 
496 19 1 -140.419 -37.7388 -109.684 -0.00118139 -0.00203757 0.000854025 
495 19 1 -136.896 -36.7667 -111.915 0.00116042 -0.00189461 -0.000543835 
492 19 1 -133.194 -37.847 -105.427 -0.00335205 0.000842654 0.00204759 
494 19 1 -133.431 -34.6074 -111.213 0.000558911 0.00142094 0.00106644 
493 19 1 -131.467 -36.5756 -108.048 3.41769e-06 -0.00107214 0.000850649 
3029 113 1 26.53 -261.164 41.0382 0.000691843 -0.00122586 -0.00087805 
909 34 1 -121.172 -119.201 -5.1397 0.000683144 0.000228574 -0.0012867 
3139 117 1 20.7983 45.371 -106.847 -0.00178065 0.00173014 0.00241325 
3030 113 1 25.5717 -264.325 41.9482 -0.000191123 0.000587803 0.000141329 
3031 113 1 25.9819 -266.836 39.1023 9.81281e-05 -0.00330922 -0.000862076 
2538 94 1 26.4323 43.3704 122.791 -5.45603e-05 -0.00089265 -0.000481602 
746 28 1 -38.9603 -109.396 -112.523 -0.00235847 -0.000503087 -0.00104969 
744 28 1 -43.5475 -110.626 -110.336 0.00223826 0.000324651 0.00119881 
743 28 1 -43.7393 -114.491 -109.669 -0.00172403 0.00174382 -0.00020754 
745 28 1 -42.4862 -107.748 -113.66 -0.000573962 -0.00171254 -0.000293962 
3206 119 1 -37.9444 -37.5323 -336.564 0.000419312 -0.00110303 0.00161445 
2466 92 1 22.3633 -59.3198 72.6818 4.08858e-05 0.000874028 0.000255358 
3217 120 1 105.124 170.317 -37.4866 0.000947495 -4.91049e-06 -0.0012659 
754 28 1 -30.3726 -101.34 -112.857 0.00088012 -0.00169631 -0.00174016 
755 28 1 -33.7165 -98.6863 -111.563 0.0006984 -0.00327 -0.00144993 
756 28 1 -36.1026 -98.9393 -108.821 -0.000445462 0.00290187 0.000492103 
2332 87 1 -178.115 -175.84 -108.755 -0.000328696 -0.00170114 0.00182225 
2794 104 1 -1.85349 -15.525 -37.2769 -4.06217e-05 3.4654e-05 0.00081833 
2687 100 1 -108.256 48.6107 44.4814 -0.000455486 -0.0004427 0.000419073 
3343 124 1 55.5876 -20.5786 -34.8286 -0.00047029 -0.000875852 0.00167679 
3344 124 1 54.8592 -23.8783 -35.8534 -0.000536288 -0.00348881 0.000504602 
3342 124 1 54.3938 -17.7065 -32.6387 -0.00100967 -0.000806269 -0.000911273 
2689 100 1 -99.8989 48.1533 44.0907 0.00134589 0.00111394 -8.94225e-05 
2690 100 1 -97.1206 47.0235 46.8433 -0.000412457 0.000154587 -0.000174672 
1223 46 1 -104.021 -61.1018 38.9213 0.00219906 0.000861144 9.83299e-05 
3018 112 1 -169.992 -98.7359 -30.8249 0.00122596 -0.000270699 -0.000803185 
3021 112 1 -163.348 -96.0243 -33.836 -8.23209e-05 -0.00059215 -0.00104659 
3022 112 1 -162.423 -99.6111 -33.4254 0.000801047 0.0022436 0.000419272 
3019 112 1 -169.024 -94.9542 -31.4371 0.00122203 -0.00056972 0.000479719 
1405 53 1 -9.65463 -28.5446 -114.205 0.00078355 0.00175582 -0.00145053 
3017 112 1 -168.891 -102.639 -31.5267 -0.00132013 0.000835787 -0.000185226 
752 28 1 -25.1069 -103.183 -114.226 -0.00215646 -0.0017572 -0.000210541 
1378 52 1 -155.283 -19.9065 -33.5771 0.000538312 -0.00153237 0.000217125 
54 2 1 -157.881 -106.131 -32.1546 0.000419721 0.000192221 0.00127855 
53 2 1 -155.774 -102.311 -33.0709 -0.000735915 0.00232948 -0.00166278 
2800 104 1 0.574678 -25.8614 -29.0028 -0.000450989 -0.0018153 0.00314898 
2798 104 1 5.68066 -27.3555 -32.6348 -0.00178158 -0.000608795 -0.000304041 
2797 104 1 4.98234 -23.387 -31.4143 -0.000398093 0.00143937 -0.00139439 
2799 104 1 2.1215 -27.2363 -32.4722 0.000604357 0.0012968 0.00147217 
2226 83 1 7.4726 -101.8 -27.3043 -0.00150007 0.000515499 0.00119044 
32 2 1 -141.948 -131.57 -37.2414 -8.34703e-06 0.00177586 -0.000663835 
2559 95 1 -176.88 -89.556 -37.3415 -0.000721475 0.000557687 0.00108364 
3140 117 1 17.0997 45.6045 -108.206 0.000443734 -0.000499914 0.00017845 
846 32 1 -63.1177 -28.0396 -35.9585 -2.98408e-05 0.000951572 -6.50097e-05 
2229 83 1 15.038 -99.5113 -32.8666 -0.000153745 -0.000229306 -0.000100262 
2228 83 1 11.0848 -99.0103 -31.5258 -0.000695731 -0.000477399 0.00117101 
2230 83 1 16.5222 -98.5645 -36.5598 0.00101699 -0.00154405 -0.00306091 
2227 83 1 10.0658 -102.223 -30.1467 0.000920701 6.84076e-05 -3.75008e-05 
845 32 1 -66.0745 -24.9554 -37.161 0.00191194 -0.000126006 -0.00182869 
847 32 1 -59.8993 -29.8762 -37.7778 -0.00143661 -0.00096892 1.75206e-05 
3138 117 1 21.8263 47.8554 -109.857 -0.000804503 -0.000744959 -0.000229188 
3137 117 1 20.4516 51.0513 -111.689 0.00151565 -0.000896296 -0.000422625 
3136 117 1 24.0684 52.9942 -113.106 -0.000892434 -0.000481688 0.00217816 
2117 79 1 30.8411 -29.191 43.1509 -0.000709412 -0.000778523 -0.00215194 
2116 79 1 27.3833 -28.1352 44.3066 -0.000983826 0.000414273 -0.000824791 
3135 117 1 27.569 51.532 -114.136 0.000671267 0.000202701 0.00181043 
3134 117 1 29.4105 53.6692 -111.445 -0.0018987 0.000307493 -0.00162315 
2118 79 1 32.8332 -26.854 40.6711 0.00069401 0.000969047 0.000141105 
1198 45 1 -98.3827 -57.0804 -189.226 0.000359251 -0.00177631 0.000930732 
2245 84 1 114.917 136.874 -37.4949 -0.00309191 -0.00059633 -0.000365853 
2754 102 1 -117.546 55.2069 -33.3969 0.000920185 -0.000235866 -0.00206597 
2753 102 1 -119.79 54.3727 -30.0467 -0.000253914 0.00102777 -3.0795e-06 
2330 87 1 -182.298 -170.766 -108.913 0.00102928 0.000399955 0.00047029 
2329 87 1 -185.696 -168.81 -110.397 3.4995e-05 -0.000816274 -0.00048336 
2327 87 1 -186.047 -161.728 -107.988 0.000499922 0.000644065 1.78723e-05 
2561 95 1 -179.869 -87.6099 -30.9093 -0.000865231 -0.00079457 0.000247381 
149 6 1 -270.281 38.2332 -160.787 0.00190275 0.00163683 -0.000298601 
2562 95 1 -179.414 -84.9021 -27.8766 0.000499017 -0.000794774 0.000796534 
2563 95 1 -183.594 -84.4058 -27.2339 -0.00111788 0.000436239 0.000444672 
2738 102 1 -113.556 62.6489 -31.3386 0.000917544 0.00144917 -0.000669138 
2739 102 1 -115.165 58.7691 -31.1245 -0.000529044 -0.000242717 -0.00103175 
2331 87 1 -179.332 -172.691 -107.313 -0.00271886 0.00041494 -0.000449887 
3341 124 1 53.4091 -15.7612 -29.6145 -0.00258851 0.00139541 0.000449536 
1159 43 1 -22.2525 -83.9041 -109.218 0.00125058 0.00312528 0.00015612 
2558 95 1 -173.327 -88.896 -34.4876 -0.00159437 0.00118259 0.000412514 
528 20 1 28.6757 -108.092 -3.00058 -0.000577594 -0.00156082 -0.0010073 
3020 112 1 -166.084 -93.5085 -33.425 0.000463738 0.000959378 0.00190027 
2557 95 1 -169.379 -89.3002 -33.8324 0.000882129 0.000139422 -0.000149495 
1382 52 1 -162.842 -7.21771 -36.6691 -0.000558595 -0.000713342 -1.48897e-05 
1381 52 1 -162.324 -10.9379 -34.8119 -0.000280084 0.00263102 0.000696659 
1379 52 1 -158.311 -17.1309 -33.2663 0.000647012 -0.00114538 -0.00209279 
1380 52 1 -160.722 -14.1331 -33.5804 3.63813e-05 -0.000438823 -0.000619641 
2945 110 1 -84.712 -13.0534 150.561 0.000383225 -0.000826715 0.00124819 
1296 48 1 -153.588 -13.7421 197.345 -0.000512986 0.00105046 0.00141517 
2328 87 1 -185.604 -164.373 -111.641 0.00176808 -0.000266147 0.000872491 
2080 78 1 -7.06756 -94.451 -28.5231 -0.00174324 0.00130422 0.000425468 
2796 104 1 4.3431 -19.821 -33.8374 -0.00030948 0.00109188 -5.31169e-05 
1864 70 1 -75.4901 -10.293 40.2402 -0.000454141 0.00118499 -0.000586084 
2795 104 1 1.60038 -16.9666 -35.5542 -0.00224727 -0.00168323 -0.000349879 
622 24 1 -71.9085 -164.658 -31.7932 0.00139804 -0.00140686 0.000648301 
838 32 1 -70.4693 -14.3005 -37.1054 0.00230479 2.41784e-05 0.000592474 
839 32 1 -66.6878 -13.2684 -34.5869 -0.000268167 -0.00109876 -0.00273371 
151 6 1 -270.382 41.8149 -154.317 -0.000864526 -0.0016356 -0.000723002 
623 24 1 -67.9733 -163.833 -29.9365 -0.00176877 -0.00130454 -0.000993919 
840 32 1 -65.2742 -17.2803 -33.2365 -0.000576047 -0.00023784 -0.000125999 
2231 83 1 18.6701 -95.4488 -37.3607 5.68235e-05 0.00177341 -5.80696e-05 
2149 80 1 91.9315 -168.22 -106.817 -0.00315483 -0.000530344 0.000400733 
3085 115 1 -251.303 -0.124811 192.242 0.000392821 0.00219336 -2.38043e-05 
2151 80 1 97.1563 -164.366 -109.75 0.00180574 0.00118941 -0.000675468 
730 28 1 -62.8741 -96.3348 -104.12 -0.000931149 -0.00223278 -0.00093621 
2150 80 1 95.9497 -168.151 -108.753 -0.00106969 0.00118985 0.000800012 
624 24 1 -64.4773 -163.812 -28.8486 0.0010422 -0.00073739 0.000272054 
841 32 1 -62.3291 -18.0059 -35.7783 -0.000716 0.00076933 0.00373734 
732 28 1 -55.2153 -97.293 -108.193 -0.0004252 0.00079469 -0.00217843 
2261 84 1 100.497 135.185 -37.3448 0.00202134 -0.000363192 0.000990661 
731 28 1 -58.6408 -97.2902 -105.5 0.000268178 -0.00239419 4.43508e-05 
2260 84 1 101.166 135.452 -33.1669 0.000317689 -0.000430212 -0.000945133 
2259 84 1 102.424 138.926 -33.2217 -7.98828e-06 0.000310211 -0.00254796 
2258 84 1 104.904 137.473 -29.9117 -0.00149691 0.000872718 -0.000359172 
3133 117 1 29.9042 57.3594 -110.783 0.000121499 -0.00237307 -0.000865352 
2247 84 1 109.255 137.52 -32.5927 0.000764469 -0.000506334 -0.00088232 
2248 84 1 109.773 140.394 -30.7943 0.00156129 0.00126769 0.000306994 
2249 84 1 110.439 141.473 -26.9808 -0.0022221 0.00249259 0.00101446 
2326 87 1 -189.423 -160.462 -106.71 -0.000106967 -8.31598e-05 0.000396781 
1237 46 1 -110.189 -79.2811 45.9105 0.000420408 0.000423111 -0.00155503 
1236 46 1 -107.244 -79.4605 43.9724 -0.000365363 -0.00179536 0.00127565 
1399 52 1 -163.113 2.87551 -36.533 -0.000982949 -0.000343269 -0.00186871 
1013 38 1 -264.961 -78.4102 -35.1032 0.000960206 -0.00107896 -0.00245222 
2560 95 1 -178.936 -89.739 -34.2493 -1.09737e-05 0.00180455 2.57964e-05 
2120 79 1 37.0833 -25.5847 38.9872 -0.000643207 0.000658317 -0.000856396 
1160 43 1 -21.8752 -83.2727 -104.454 -0.00105364 0.00239964 -0.000475579 
1235 46 1 -104.198 -80.5669 46.1186 0.00127936 0.00150284 -0.00365101 
1234 46 1 -100.175 -78.593 45.0732 0.00128607 0.000175777 0.000158631 
1158 43 1 -25.9375 -82.3296 -110.652 0.000266924 0.000845345 -0.000357928 
1611 60 1 -27.2677 -0.762575 -254.687 -0.000128497 -0.00160668 -0.00119352 
1233 46 1 -99.228 -75.2508 45.7174 -8.54958e-05 -6.4115e-05 -0.000248787 
1404 52 1 -163.068 -5.43002 -30.9971 0.0013643 0.000489231 0.000202048 
2556 95 1 -167.037 -86.0994 -32.5298 -6.44045e-05 0.0020418 -0.00145816 
1403 52 1 -166.045 -2.14061 -31.3168 0.001081 0.000723924 -0.00124565 
2555 95 1 -169.691 -83.1535 -31.7728 0.000356356 0.000938202 -0.000281017 
2539 95 1 -168.745 -73.7806 -35.6857 0.000808142 -0.00121077 -0.000976242 
2554 95 1 -170.931 -78.8035 -32.0092 -0.000693981 -0.00039355 -0.000440358 
1402 52 1 -164.597 0.429843 -28.876 -0.00122832 -0.00122008 -0.0015148 
1729 65 1 -81.7175 -86.3667 -29.9065 0.000718893 -0.000563259 -0.000574527 
1730 65 1 -80.607 -85.954 -33.298 0.0009984 6.12267e-05 0.00134808 
1396 52 1 -157.967 -3.62767 -33.7556 -0.00122316 0.000267264 -0.000143252 
1731 65 1 -77.6727 -84.0768 -31.4757 0.000102768 -0.00128659 0.00169735 
2094 78 1 -5.67293 -79.802 -28.1786 -0.0017359 0.000110704 0.00155912 
1397 52 1 -159.162 -2.69544 -37.1671 0.000394579 0.00069112 0.000340953 
2574 96 1 72.0808 25.1475 -36.007 0.000257715 0.0010596 -0.00124708 
320 12 1 1.58344 0.208728 44.1297 0.00165205 -0.00061491 0.00037133 
321 12 1 4.04275 -2.2517 42.3692 0.00207036 -0.00030993 0.000320161 
1865 70 1 -73.9319 -7.16077 38.6756 0.000968841 -5.72625e-05 -0.00238722 
322 12 1 6.07684 -3.05547 45.9946 -0.00124163 -0.00287181 0.00299609 
1732 65 1 -76.4883 -81.3965 -28.9959 -0.00122923 0.000597562 -0.000455741 
2144 80 1 84.6533 -154.966 -113.106 0.00218382 -0.00105816 -0.000902472 
2146 80 1 89.1562 -159.565 -112.175 0.000132699 0.000745874 -0.00231651 
313 12 1 12.3919 -2.6247 46.0499 0.000920691 0.00186225 -9.26996e-05 
2772 103 1 13.4568 -0.284003 40.2625 0.000361501 -0.000404555 0.00124384 
2147 80 1 90.7123 -160.956 -109.16 0.00130144 0.0015257 -0.00072282 
312 12 1 14.7479 -3.62945 48.996 -0.000390852 -0.00093182 -0.000543944 
3023 112 1 -165.37 -100.387 -35.9189 -0.000584753 -0.000307891 -0.000665832 
2145 80 1 84.8732 -159.228 -113.386 0.000252598 0.000461248 -0.00062741 
366 14 1 25.2061 -6.87575 39.9119 0.00258889 -0.000151408 0.000476554 
2152 80 1 96.7157 -160.409 -108.823 -0.00301099 -0.00127965 -0.000924881 
2157 80 1 106.9 -156.082 -110.058 -0.000526416 0.00318094 -0.00114874 
2153 80 1 95.9722 -156.598 -108.534 0.000456371 0.00101643 -0.000618703 
367 14 1 23.5529 -3.27889 40.4176 0.000333474 -0.000287727 0.00288928 
368 14 1 21.5988 -0.00557967 41.1024 0.000920328 0.00163623 0.000287752 
2156 80 1 103.569 -157.398 -108.017 0.00349114 0.00139332 -0.00244051 
2154 80 1 98.3189 -156.442 -105.192 -0.000308473 0.000476168 0.000438647 
1398 52 1 -162.23 -1.35487 -36.709 -0.00134794 0.000103623 -0.00174193 
2325 87 1 -191.706 -160.213 -109.545 0.000997399 -0.000302003 0.00179867 
2158 80 1 108.253 -158.162 -112.92 0.000551386 -0.000722442 -0.000918345 
2159 80 1 109.009 -161.634 -113.126 -0.000982917 -0.00181669 -0.00116292 
2324 87 1 -194.505 -158.681 -106.649 -0.00106165 -0.000954853 0.000617387 
2160 80 1 105.666 -161.674 -110.177 -0.00144915 -0.00202358 0.00149835 
1012 38 1 -268.985 -78.577 -35.5836 0.00154411 0.00145465 0.00145166 
1602 60 1 -37.0519 3.46792 -259.02 0.000713341 -0.000165149 0.00122712 
1015 38 1 -262.143 -71.5969 -34.8246 0.00140643 0.000976341 -0.00144179 
1014 38 1 -262.857 -75.4169 -35.1252 0.000730506 4.28119e-05 0.00130289 
1460 55 1 -107.018 -67.4182 48.4525 -0.000936092 -4.95736e-05 -0.000849976 
1459 55 1 -110.256 -67.5287 45.8733 0.000380139 0.000548434 0.00067901 
1016 38 1 -262.148 -67.8089 -36.8264 -0.000189481 -0.00108382 0.000279235 
1239 46 1 -107.75 -74.4237 48.3811 -0.000314191 0.000842565 0.0034727 
1241 46 1 -103.915 -74.655 43.5272 -0.000585491 -0.000135446 -0.000664871 
1240 46 1 -106.224 -72.0555 45.7163 0.000109985 0.00207043 -0.00126364 
1274 48 1 -180.71 8.86959 194.668 0.000816427 -0.00116619 0.000204184 
1242 46 1 -104.651 -76.8471 40.3205 -0.000439775 -0.000858763 -0.00103829 
1232 46 1 -99.7939 -71.5205 45.789 -0.00239812 -0.000384247 0.00110069 
1227 46 1 -97.6164 -69.8045 41.2682 -0.000323044 0.00275495 -0.00205635 
1275 48 1 -177.509 10.5041 196.48 -0.000392025 0.000513039 0.000579923 
1231 46 1 -95.7709 -72.2417 46.0082 -0.00041466 -0.000149821 0.00268578 
3008 112 1 -151.882 -102.626 -37.5105 0.000123513 -0.00154511 -0.00140541 
2543 95 1 -164.408 -68.1247 -35.0299 -0.00117054 0.000894335 0.00166231 
2544 95 1 -166.595 -69.5728 -32.0836 0.00168427 0.000959661 -0.0002298 
2989 111 1 -38.505 66.4324 -76.646 -7.31362e-05 -0.00110807 0.000951331 
1400 52 1 -160.628 2.59108 -32.8493 -0.000511635 -0.000790512 -0.00010694 
1401 52 1 -160.506 1.25802 -29.0443 0.000571063 -0.000127377 0.00160601 
319 12 1 -1.42553 1.80264 43.0832 0.00023219 0.000353295 -0.000557723 
1747 65 1 -82.3175 -68.8356 -34.8049 0.000958381 -2.12843e-05 -0.00177233 
1746 65 1 -82.3833 -69.118 -30.4566 0.00173285 -0.00128277 0.000940673 
1745 65 1 -80.6395 -68.4284 -26.7398 0.000899495 -0.000786167 0.000696754 
318 12 1 0.24062 5.27859 43.9496 0.000478817 0.000224495 -0.000643073 
2095 78 1 -3.26526 -76.2447 -27.5777 0.000916122 0.00198491 0.000676599 
317 12 1 4.39639 5.8181 42.6292 0.00112069 0.000179733 0.00233815 
316 12 1 5.48188 3.84068 46.0929 0.00211937 0.00197285 0.000933332 
315 12 1 8.46146 2.83612 43.3537 -0.00123106 -0.00106446 -0.00147701 
2771 103 1 16.5751 0.851297 42.7333 -0.00072093 -0.000660473 3.77429e-05 
314 12 1 11.3888 0.991186 45.2057 0.000812102 -0.000953668 -0.000173053 
2847 106 1 -137.891 -69.8292 -259.142 0.000398278 2.86163e-05 -0.000124929 
2846 106 1 -140.395 -69.1756 -261.835 0.000222872 -0.000529358 -0.000686225 
2845 106 1 -140.893 -66.1746 -264.356 0.000725887 -0.00153256 0.0011737 
2848 106 1 -135.56 -67.6381 -256.843 -0.00308314 -0.00145187 0.00104379 
2770 103 1 18.8847 3.57412 44.5177 0.00013423 -0.00163254 0.000868815 
2852 106 1 -127.911 -69.4984 -261.772 0.00211184 -0.00192214 -7.27015e-05 
2851 106 1 -129.242 -69.505 -258.594 -0.000104603 -0.00150541 0.00171772 
2849 106 1 -133.661 -65.5347 -255.071 -0.000929252 0.000115592 0.000890373 
2850 106 1 -131.01 -67.6084 -256.143 -0.00191851 0.00129301 0.0019646 
3007 112 1 -151.203 -98.6416 -37.4254 0.000906401 0.0015801 -0.000565951 
1009 38 1 -273.462 -73.4039 -38.2115 0.00145857 -0.00144331 -0.00231438 
3218 120 1 105.636 166.155 -37.9811 0.00139397 -0.0007211 0.000400641 
2349 87 1 -203.422 -152.227 -105.785 0.00227935 0.000688037 -0.00143055 
1601 60 1 -39.5602 6.01419 -261.082 0.00137568 -0.000667564 -0.00113222 
1011 38 1 -269.37 -76.6221 -32.2772 -7.08129e-06 -7.68992e-05 -0.00154152 
1594 60 1 -46.8202 3.08204 -260.874 -0.000896958 0.000481297 0.000839047 
1600 60 1 -39.5035 8.38767 -258.373 0.000559171 -0.000258336 0.000191047 
2486 93 1 108.038 -0.810773 -104.82 -0.000654197 -1.66735e-05 -0.00049982 
1010 38 1 -270.929 -74.3078 -34.9269 0.000786942 -0.00115443 0.000243952 
472 18 1 37.7674 -148.141 -190.709 -0.000717697 -0.00137363 -0.000955254 
1273 48 1 -181.581 12.3488 196.877 0.000763009 -0.000388197 0.00094606 
1272 48 1 -184.418 14.9695 196.547 -0.00156729 -0.000133264 -5.671e-05 
1271 48 1 -184.025 16.0982 200.463 -0.000126367 0.000736546 9.48757e-05 
834 31 1 -38.0874 11.4888 -110.092 -0.000113947 0.000993983 0.000535815 
1192 45 1 -100.772 -60.2826 -184.471 0.000878563 -0.000931031 -0.00224122 
1193 45 1 -97.5271 -62.1198 -186.643 0.00148014 0.0025005 -0.00356539 
1194 45 1 -93.6296 -61.8361 -186.111 -0.000950019 -0.00106846 -0.00125385 
1228 46 1 -95.1823 -67.5861 42.7552 -0.00082926 -0.000277809 0.00144682 
1395 52 1 -154.608 -4.89381 -35.7872 0.00116378 -0.00107342 0.00182729 
1089 41 1 64.2739 -59.5736 -109.986 0.000340257 0.000105395 0.000421064 
3163 118 1 132.496 -56.3094 -107.663 0.00128362 2.70489e-05 -0.000110757 
1195 45 1 -92.3583 -62.7741 -189.524 0.000986921 -0.0004204 0.00233395 
1085 41 1 62.8169 -64.5339 -106.721 -0.000761351 0.00112494 0.000985466 
1086 41 1 66.6894 -64.6948 -107.139 0.00312414 -0.00319682 -0.00146362 
1090 41 1 67.6857 -56.8603 -109.728 -0.0018856 0.00207226 -8.66497e-05 
1088 41 1 66.3604 -61.0021 -113.839 0.000509192 0.00196543 0.000478021 
1087 41 1 67.5403 -63.4986 -111.018 0.000180414 -0.00203538 0.000138552 
1092 41 1 74.9908 -56.0906 -108.226 -0.00203623 0.000512198 0.00106271 
2839 106 1 -156.168 -61.0051 -256.25 0.00136861 0.000866398 -0.00100736 
2840 106 1 -156.983 -61.3582 -259.935 -0.00376678 -0.00124888 0.000332445 
1093 41 1 76.0559 -59.0188 -110.86 -0.000244421 7.69143e-05 0.00183527 
2841 106 1 -153.28 -63.2989 -260.416 0.00261804 -0.00172602 0.000271778 
1091 41 1 71.0687 -55.0767 -109.238 0.00200769 -0.000493532 0.000354722 
1096 41 1 79.9731 -58.2447 -106.281 0.00102323 -0.00186608 0.00019044 
3365 125 1 -117.548 -97.9032 150.696 -0.000375531 0.00133917 -0.00167459 
2844 106 1 -144.523 -65.0411 -264.989 -0.00150849 0.00103433 -0.000372505 
2842 106 1 -149.507 -65.7085 -259.782 0.00123169 -0.00175568 -0.000487563 
2843 106 1 -145.201 -66.2538 -261.592 -0.00179268 -0.00191413 0.000601952 
1094 41 1 79.055 -61.4702 -111.704 -0.00125614 -0.000588861 0.000723002 
1095 41 1 81.7821 -60.9679 -109.043 0.00193993 0.000201098 4.91773e-05 
2100 78 1 9.93953 -67.0066 -26.9558 -0.002527 0.000452764 0.00122728 
3132 116 1 162.53 -58.9096 -33.3583 0.000116088 0.00171687 -0.0011274 
2853 106 1 -131.765 -68.1753 -262.664 0.00242448 0.00137008 -0.000754702 
750 28 1 -26.0842 -107.508 -114.113 0.00150486 -0.000385756 0.000424231 
2854 106 1 -133.9 -64.8091 -261.494 -0.00190155 0.00141323 0.000175433 
2859 106 1 -137.324 -59.2511 -264.686 0.000873952 -0.000257742 0.000531966 
2858 106 1 -133.766 -57.2911 -261.998 -0.000257088 0.00097317 -0.000981522 
2101 78 1 11.5298 -64.5365 -30.0216 -0.000588614 0.000389864 0.00204459 
2857 106 1 -132.374 -56.8323 -257.928 -0.000214371 0.00287854 0.00166809 
1876 70 1 -72.5595 9.23872 38.5988 0.000339687 0.00119653 -0.00181384 
666 25 1 23.2544 -62.7425 121.332 0.000266512 -0.00122882 -0.000694702 
2643 98 1 -54.9136 91.1276 40.2688 -3.13334e-05 0.00119304 0.00171394 
667 25 1 25.6252 -60.1645 119.116 -0.00056172 -0.00148565 0.0015741 
2855 106 1 -134.986 -61.7554 -259.11 -0.00246287 -0.000391536 -0.000734805 
665 25 1 26.516 -63.46 122.524 -0.000270091 -0.00241815 -0.00136165 
835 31 1 -38.1672 15.5394 -111.54 0.000199874 0.00130374 0.000853923 
833 31 1 -39.7421 10.6217 -113.6 0.00133948 -0.000381487 -0.000307765 
1595 60 1 -46.2154 7.04601 -261.448 0.0023463 -0.000190955 0.000344548 
1596 60 1 -45.911 10.706 -261.802 -0.00154311 0.00139244 0.00198617 
1597 60 1 -44.1216 14.4195 -261.393 0.00239602 0.000245493 -0.00207825 
836 31 1 -41.3645 18.3297 -111.999 0.000413038 0.00120103 0.00070989 
3219 120 1 102.695 163.219 -37.453 -0.00143393 0.00149536 -0.000709912 
1598 60 1 -41.3205 15.0115 -258.564 4.11669e-05 -0.00209759 -0.00066977 
3028 113 1 23.3826 -259.256 38.1263 0.00301302 0.000175471 -0.00142506 
1203 45 1 -107.509 -48.3097 -184.115 0.00334609 0.000114767 0.000590829 
1217 46 1 -113.257 -53.7007 48.161 -0.00101207 -0.000243189 -0.00178532 
1216 46 1 -112.09 -56.6289 45.6219 0.000742309 -5.13915e-05 -0.00104064 
1202 45 1 -109.542 -51.4238 -185.615 0.000321957 0.000909538 0.00126681 
1219 46 1 -114.913 -51.864 41.4815 -0.00149624 -0.00128809 -0.00119503 
2129 79 1 41.3772 -46.8872 38.3913 0.00150602 -0.0016216 -0.00250304 
1156 43 1 -30.8455 -81.8951 -113.367 0.000131851 -0.00120049 -0.00128614 
1191 45 1 -103.725 -57.4627 -184.865 -0.000556307 -0.00254717 0.00305152 
3162 118 1 129.852 -54.0946 -107.441 0.00334989 0.000734108 0.00325068 
1201 45 1 -107.001 -52.2912 -188.03 0.00218462 -0.00205591 -0.000258901 
1200 45 1 -103.018 -51.1132 -188.34 -0.000349946 0.00184857 0.00148963 
1190 45 1 -104.586 -55.537 -181.484 -0.000277749 -0.00083923 0.000538377 
3182 118 1 135.125 -50.6437 -108.263 0.00106675 -6.14821e-05 0.000206771 
3181 118 1 132.297 -50.5801 -111.934 9.90071e-05 0.00119615 0.0015826 
519 20 1 37.9925 -126.62 -0.600991 0.00211816 0.000683989 -0.000957127 
1205 45 1 -102.788 -48.1751 -182.662 0.000647593 0.000229856 0.00124434 
1206 45 1 -99.3467 -48.5106 -182.786 -0.000845556 -0.000214892 -0.000599821 
3176 118 1 142.011 -51.3432 -111.97 -0.000490701 -0.00105979 -4.7825e-05 
3164 118 1 136.222 -56.493 -106.011 -0.000885163 -0.00116939 0.00100772 
3165 118 1 136.823 -55.7419 -109.785 -0.000751883 -0.00086008 -0.00170724 
3166 118 1 136.574 -54.522 -112.774 7.27521e-05 0.00110639 0.00123324 
3124 116 1 142.662 -47.7126 -27.0944 0.000172912 0.000109763 -0.000304402 
3125 116 1 143.424 -50.8173 -28.6217 0.000819041 0.00171985 0.00194992 
3177 118 1 138.896 -49.4575 -113.534 -0.00159064 -0.000266118 -6.22004e-05 
1766 66 1 -143.293 107.269 -153.554 -0.000213738 -0.00310242 -0.000914242 
751 28 1 -22.5782 -106.13 -113.897 -0.000569677 -0.000217025 -0.000440404 
3128 116 1 154.446 -52.3555 -31.6214 0.00175735 0.0016745 0.000354581 
3127 116 1 151.474 -49.3229 -31.7414 -0.000565166 -0.00126482 0.000260871 
3126 116 1 147.838 -50.113 -29.6505 -0.0010323 0.0012702 0.00126769 
1157 43 1 -28.347 -84.8672 -113.148 -0.00155548 -0.00225655 0.00112674 
3129 116 1 158.121 -52.6522 -29.4856 -0.001217 0.00264619 0.00151826 
517 20 1 39.8964 -132.355 -0.626333 -0.00184675 -0.000101745 -0.00093809 
30 2 1 -146.934 -131.649 -34.7672 -0.0020171 -0.00370252 0.0027538 
2211 82 1 -70.5759 26.833 -33.4268 -0.00211272 -0.00157759 -0.0010071 
2212 82 1 -67.1267 25.834 -33.6886 -0.000288724 0.00109116 -0.000281315 
2213 82 1 -63.6049 27.0938 -31.5176 0.000380902 -0.00139831 0.00146982 
1121 42 1 -59.3534 -52.4716 -263.315 0.000239484 0.0024828 -0.00223745 
1122 42 1 -60.2441 -54.3372 -266.497 -0.00115196 0.00287727 -0.000920366 
672 25 1 19.7761 -47.6192 119.463 4.41352e-05 0.00140596 0.000542634 
1120 42 1 -60.7642 -53.6144 -259.221 0.000810501 -0.00130627 -0.000477504 
673 25 1 16.2592 -46.5635 117.385 0.00210709 -0.000530777 -9.92873e-05 
3215 120 1 101.761 176.921 -36.332 -0.000331886 -0.000907676 -0.000802243 
937 35 1 -51.6336 -44.7345 115.579 0.00128944 9.63699e-05 0.00116484 
671 25 1 23.2007 -49.0404 120.626 -0.000792973 0.00131327 0.00122288 
3214 120 1 98.748 175.105 -34.0994 -0.00171926 -0.000559411 0.00120684 
670 25 1 23.3369 -51.2121 123.799 -0.000524532 0.00110268 -0.000310078 
669 25 1 26.192 -53.7154 122.94 0.00188476 -0.00145565 -0.000236713 
668 25 1 26.4223 -57.2979 120.923 -0.00260793 -0.00214907 -0.0012099 
2246 84 1 111.975 138.949 -35.345 -0.0021088 0.00205539 0.000412423 
1635 61 1 -77.4852 -40.5695 -231.737 1.25525e-05 0.000368244 0.000609428 
1218 46 1 -114.406 -51.0713 45.6959 -0.00098461 -0.000601073 -0.000732371 
837 31 1 -44.2608 20.5191 -110.511 0.000127894 0.00371432 -0.00153946 
2820 105 1 29.1348 -46.6388 -30.6979 0.000930207 0.00179488 -0.000617189 
2821 105 1 30.8567 -49.2543 -33.5461 -0.00159161 0.00166377 -5.55497e-06 
2773 103 1 16.4422 -2.74628 38.929 0.0015077 -0.00119443 0.000237224 
910 34 1 -119.473 -118.152 -1.76006 -0.00129926 0.00075599 0.000820794 
2130 79 1 40.4329 -46.7013 42.2552 -0.000215865 0.00299918 -0.00280237 
2131 79 1 41.6676 -43.4846 43.2658 0.00248781 0.00175294 -0.000523597 
2132 79 1 44.5688 -40.5732 42.9277 0.00172896 -0.000380879 0.0013856 
2133 79 1 47.4127 -38.3281 41.8408 0.000826106 -0.000699127 0.00120497 
2127 79 1 48.8465 -44.188 38.6244 -0.00227774 -0.000387042 -0.00259196 
705 27 1 134.078 -116.02 -109.643 0.000255055 -0.0011291 -0.00255656 
3180 118 1 129.969 -47.635 -111.449 -0.000238092 -0.00199686 0.00106597 
3179 118 1 132.717 -44.5767 -111.444 -0.00211684 -0.000922026 0.00090109 
704 27 1 131.117 -115.41 -107.304 2.47877e-05 -0.00136342 3.62375e-06 
703 27 1 128.538 -118.094 -108.189 -0.000554841 -0.000154058 -0.0004021 
706 27 1 135.921 -118.045 -106.736 -0.00146608 0.000153358 2.54344e-05 
1208 45 1 -94.3391 -47.6673 -180.552 -0.00069465 -0.000285454 0.000649989 
707 27 1 138.974 -120.487 -107.341 -0.00104202 0.00123177 0.000933691 
3178 118 1 136.153 -47.0496 -112.521 -0.00161496 0.000736206 0.000714027 
387 15 1 -86.4621 -45.3523 -35.6805 0.00259047 -0.0012732 0.000289584 
766 29 1 -14.1382 36.959 -35.5959 0.00061568 0.00181681 -0.00180842 
391 15 1 -81.2004 -39.06 -29.4657 0.000218604 0.00033379 -0.000160057 
388 15 1 -84.4608 -47.5669 -33.1808 0.0010932 0.00117185 0.000768605 
390 15 1 -80.9921 -41.3006 -33.5228 0.000225573 0.00211243 -2.74347e-05 
389 15 1 -82.0318 -44.9781 -31.9461 -0.000544468 0.00052573 0.000852274 
55 3 1 77.0141 -44.8598 -110.975 -0.000513225 -0.00179035 -0.000889875 
56 3 1 80.4509 -42.4903 -111.677 0.000359198 0.000777065 0.000991832 
3086 115 1 -250.702 -4.0196 190.97 -0.00304493 -0.0003496 -0.00086783 
2210 82 1 -69.5142 29.1168 -30.9624 0.00315395 -0.00176225 -0.000958798 
57 3 1 83.4038 -43.2299 -114.023 8.25416e-05 -0.000576662 -0.000685444 
58 3 1 86.0691 -45.7832 -112.454 0.00174545 -0.00023246 9.71809e-05 
3145 117 1 5.45362 37.4509 -106.802 0.000411353 -0.000429847 -0.00129321 
445 17 1 49.7965 -126.679 -77.083 -0.00135441 -0.00134129 0.000233686 
59 3 1 87.1467 -43.2947 -109.407 0.000389927 0.000110512 -0.000692663 
674 25 1 14.4979 -44.2475 114.161 0.00135769 0.000804478 -0.000847328 
60 3 1 90.8423 -42.2393 -107.453 -0.00168984 -0.000983056 0.00112673 
66 3 1 94.8679 -40.7089 -111.534 0.000464813 -0.00202449 0.000903317 
61 3 1 93.5318 -42.5779 -104.956 0.000406024 -0.000759833 0.000651631 
936 35 1 -47.8489 -43.364 115.787 -0.000171294 -0.000430616 -0.00115641 
2819 105 1 30.391 -43.6829 -29.3202 -0.000483225 -0.000159547 0.00233624 
52 2 1 -156.686 -100.502 -36.4856 -0.000300846 0.00032949 0.000845736 
1636 61 1 -75.5119 -37.7651 -229.596 -0.0012094 -0.00254744 -0.00201356 
65 3 1 97.7657 -41.6218 -109.245 0.00205404 -0.00150732 0.000227003 
64 3 1 100.196 -41.0254 -106.506 -0.00181872 -0.00267439 -0.000217637 
741 28 1 -48.12 -114.259 -105.423 0.00225919 0.000599104 -0.000444443 
3205 119 1 -38.241 -38.4331 -340.034 -2.05108e-05 0.00225481 0.00124935 
742 28 1 -47.3951 -116.055 -108.791 0.000679664 -0.000966756 -0.00206109 
908 34 1 -117.681 -120.286 -6.57194 -0.000484763 -0.00032817 -0.000385066 