ITEM: TIMESTEP
0
ITEM: NUMBER OF ATOMS
3375
ITEM: BOX BOUNDS pp pp pp
-3.8131873000000006e+01 3.8131873000000006e+01
-3.8131873000000006e+01 3.8131873000000006e+01
-3.8131873000000006e+01 3.8131873000000006e+01
ITEM: ATOMS id mol type xu yu zu vx vy vz 
748 28 1 -30.2383 -108.805 -105.352 -7.87811e-05 0.00110372 0.00131209 
747 28 1 -34.0969 -107.247 -105.527 -0.00158335 0.00191753 0.00027945 
2126 79 1 47.3104 -33.7738 41.0068 -0.000809811 -0.000773958 0.000502633 
746 28 1 -36.4356 -105.892 -108.333 -0.000402614 -1.23513e-05 -0.00187702 
2125 79 1 43.8847 -33.5021 40.9753 -0.000897943 0.0019869 0.000371673 
3207 119 1 -36.8372 -36.2684 -334.919 -0.000452667 0.00106616 -0.000843112 
2124 79 1 40.3116 -34.4554 41.3124 0.00095382 0.00204378 0.000296244 
749 28 1 -28.5779 -105.645 -105.576 -0.000642175 -0.000971746 -0.000392363 
2700 100 1 -101.1 41.0902 44.1555 -0.00149026 -0.000759487 0.00145322 
1253 47 1 -23.5201 45.8268 -36.8126 -0.000791949 0.00020925 -0.0011013 
1254 47 1 -20.9375 44.7161 -33.7955 0.000281398 2.43377e-05 0.000276482 
750 28 1 -26.9342 -105.037 -108.898 -0.000939318 0.00017774 -0.00133511 
706 27 1 132.53 -113.404 -109.17 -0.000561862 -0.000428691 0.000122472 
1255 47 1 -18.9159 43.7025 -29.8406 0.00170026 -0.000793273 -0.00104089 
1256 47 1 -14.4275 42.5436 -29.0395 0.000770582 -0.00123308 -0.000361948 
392 15 1 -91.8305 -28.6742 -33.0747 -0.000844105 0.000307622 -0.000813825 
391 15 1 -91.2159 -31.7184 -35.8181 0.00129862 0.00251643 -0.00110101 
1268 47 1 -9.56819 40.6162 -30.0524 0.000658002 0.000392917 -0.00118029 
390 15 1 -88.8071 -35.1371 -35.0082 -0.000227539 0.000691653 0.00168154 
3012 112 1 -156.449 -107.724 -34.6917 -0.000636812 0.000661999 0.00125896 
512 19 1 -160.641 -32.2206 -113.483 0.00280698 -0.000966466 0.00136422 
1267 47 1 -8.00275 44.5409 -30.9414 0.00289358 0.00031941 0.00204682 
3011 112 1 -157.933 -111.403 -33.8589 -0.00184992 0.00179839 0.00118392 
3010 112 1 -154.328 -113.036 -34.848 0.00103489 0.000115481 0.0014709 
498 19 1 -144.153 -34.7209 -111.021 0.000161388 0.000535292 0.000387662 
3144 117 1 3.37243 45.2715 -107.72 -0.000101702 -0.00320585 0.000702555 
3145 117 1 2.51626 41.7288 -107.907 0.000980251 0.000577905 -0.000426003 
3007 112 1 -151.422 -106.454 -37.5422 0.000126664 0.00122023 -0.000485688 
499 19 1 -146.895 -33.0394 -112.978 0.000121075 0.00297842 0.00148801 
497 19 1 -141.917 -36.5904 -113.597 -3.93113e-05 6.81884e-05 -0.000124542 
3150 117 1 10.0896 44.6713 -106.474 0.00115754 -0.00146962 0.000500559 
3148 117 1 10.0729 39.6309 -106.353 0.000837313 -0.000450766 -0.000985861 
496 19 1 -140.02 -37.972 -110.752 0.00011429 0.00183848 -0.00189023 
494 19 1 -135.111 -34.4511 -113.053 -0.0016661 0.00104429 -0.00150712 
495 19 1 -138.176 -34.2377 -111.676 -0.000668936 0.000202848 -0.000443957 
3140 117 1 17.5682 47.4773 -112.382 0.000516982 -0.00229573 -0.000127365 
492 19 1 -135.286 -32.3125 -106.032 -0.000162918 -0.000341107 0.00188232 
493 19 1 -132.865 -33.496 -109.778 0.000127184 -0.00161355 0.000971576 
2816 105 1 26.0426 -35.3749 -32.0912 0.00253893 0.000517187 0.000297506 
742 28 1 -48.6748 -105.299 -107.475 1.4451e-05 -0.00044537 -0.000393848 
3030 113 1 25.8182 -260.633 38.8008 -3.31829e-06 0.00120563 -0.00283169 
2817 105 1 23.3894 -36.4573 -29.5574 0.000804679 0.00030326 -0.000496037 
3031 113 1 23.6124 -264.539 38.9547 5.79752e-05 0.000732983 -0.000953935 
3204 119 1 -42.7947 -34.3004 -339.166 -0.00129848 0.000416632 -0.0011204 
3203 119 1 -45.3152 -35.6156 -342.494 0.000257082 -0.00145416 -0.000473803 
3205 119 1 -42.5822 -35.7397 -335.759 -0.000744645 0.000935292 -0.00189696 
744 28 1 -41.7683 -105.232 -108.195 0.000679885 0.000139908 0.000726111 
3206 119 1 -39.6051 -33.3269 -335.565 0.000449059 0.000784201 -0.000494041 
745 28 1 -39.0521 -106.71 -110.859 -0.000608171 0.000296773 0.000941115 
2684 100 1 -107.378 51.7486 45.396 0.000374009 -0.00195893 -0.00112242 
1243 47 1 -31.1416 51.3093 -36.822 -0.00166077 0.00120161 0.00138201 
1244 47 1 -31.9691 47.8599 -35.0658 0.000864319 -0.0013981 -0.000353517 
2750 102 1 -112.382 54.1654 -31.6503 -0.002351 -0.000484367 0.000172082 
2751 102 1 -112.349 54.2358 -35.8389 0.000687272 -0.000454442 0.00150952 
754 28 1 -22.5593 -99.3049 -113.895 -7.67306e-05 -0.00192073 -0.000524398 
751 28 1 -25.3958 -101.06 -110.207 0.00119054 -0.00135114 -0.000484183 
752 28 1 -21.7729 -102.312 -109.989 -0.000329254 -0.000511668 -0.000230121 
753 28 1 -19.1528 -100.736 -112.379 -1.19764e-05 -0.000182629 0.00194931 
2688 100 1 -95.4241 49.732 47.3752 0.000773222 -0.00017712 0.000316004 
2329 87 1 -180.256 -171.993 -108.057 0.000663798 0.00034051 -0.00226974 
2685 100 1 -103.718 52.5067 47.2962 -0.00167944 -0.00131602 0.00122089 
2689 100 1 -93.3461 52.8989 46.4377 -0.00255618 0.00348791 0.00125293 
3024 112 1 -168.802 -95.7289 -35.9789 -0.000967306 0.000507066 0.000622022 
3347 124 1 63.197 -23.5652 -34.7567 -0.00130395 -0.000731901 -0.000831391 
513 19 1 -162.388 -28.5252 -112.558 -0.00224141 -0.000169099 0.00106714 
394 15 1 -88.3518 -24.6232 -28.9388 0.0010678 0.00112462 0.000484871 
3346 124 1 63.9955 -20.5223 -32.4165 -0.000205604 0.00214615 0.00152233 
393 15 1 -88.2616 -28.3329 -30.8197 -0.00120825 -0.000281013 -0.000160519 
3013 112 1 -158.063 -103.865 -33.3361 0.00041741 -0.000217934 -0.000344287 
3014 112 1 -158.647 -99.8304 -34.7769 0.00122916 -0.00125654 0.000132254 
3015 112 1 -159.384 -97.5913 -31.3643 -0.00160699 -0.000490133 0.00199984 
3006 112 1 -153.272 -103.178 -37.2786 -0.000817665 -0.000829733 -0.00136544 
2795 104 1 -0.956156 -24.6121 -31.7513 -0.000284361 -0.00161543 -3.41249e-05 
2796 104 1 -0.499156 -27.7217 -30.0475 -0.000454532 -0.000394776 -0.000501794 
1378 52 1 -153.271 -20.0016 -34.8543 0.000675037 -0.000561272 -0.00124784 
2794 104 1 1.89941 -21.7113 -30.4772 -0.000506407 0.00103969 0.000349897 
2227 83 1 7.55045 -101.682 -29.6769 0.00131598 -0.00149561 0.000290678 
2793 104 1 3.95428 -22.8041 -34.1516 0.000450409 5.66292e-05 0.0020767 
3143 117 1 5.31892 48.0352 -110.469 -0.000700748 -0.00239117 0.00138309 
2792 104 1 4.89188 -19.7536 -37.2535 0.000140687 -0.00157018 -0.000153791 
2229 83 1 12.4445 -97.6058 -33.3913 -0.000773226 -0.000705504 0.00321349 
3142 117 1 9.60284 48.101 -111.203 -3.48947e-06 0.000862108 0.000172958 
2228 83 1 10.2751 -99.223 -30.6727 -0.00157873 -0.00193994 -0.00156018 
3151 117 1 12.3302 48.3007 -105.107 0.00041034 -0.00205723 0.000744566 
2230 83 1 15.7697 -97.286 -35.4225 0.00199535 0.00239559 0.000278496 
731 28 1 -58.3766 -96.5048 -106.843 -0.000410005 0.000146312 -3.67167e-05 
3141 117 1 13.6804 48.6309 -111.615 -0.0012026 -0.000543559 -0.00117613 
3152 117 1 15.7164 49.9774 -106.265 -0.0036643 -4.78593e-05 -0.00139364 
3139 117 1 19.8635 48.9517 -109.291 -3.4603e-05 0.00107283 0.00133674 
352 14 1 25.9309 -25.2931 39.3398 0.00104034 0.00162832 0.000836172 
3138 117 1 23.4505 50.5488 -108.793 3.11242e-05 0.000648371 0.000586257 
3137 117 1 23.2117 53.0277 -106.335 0.00139436 0.00135926 -0.000140804 
3136 117 1 26.586 54.0227 -108.463 0.000301654 -0.00273636 -0.000350755 
730 28 1 -56.079 -95.9066 -109.026 -0.000110292 0.000544555 -0.00175994 
2261 84 1 99.8165 131.665 -37.0198 0.00109442 0.000247095 0.00313482 
2117 79 1 35.4573 -24.6538 40.7268 0.00122175 -0.000587842 -0.000152305 
743 28 1 -46.1464 -104.81 -110.273 -0.00152622 -0.000961022 0.00176483 
2116 79 1 33.5471 -23.3713 43.6888 -0.000644727 0.00148651 0.00156475 
353 14 1 29.8239 -24.1387 38.7524 0.000267204 0.000337736 -0.00268248 
2115 79 1 30.6036 -24.9049 45.8926 -0.000457902 0.000434026 -0.000909891 
2749 102 1 -115.158 51.4232 -29.1854 -0.00146777 0.000335392 -0.0005823 
3133 117 1 34.113 56.7462 -105.194 -0.00127821 8.06737e-05 0.00197456 
2323 87 1 -189.567 -162.869 -104.893 0.0014022 -0.000112986 0.00122665 
2326 87 1 -185.826 -169.677 -112.592 -0.00362475 -0.00319941 0.000638396 
2325 87 1 -187.705 -166.639 -111.725 -0.0012811 0.0011429 0.000617378 
2324 87 1 -187.826 -164.096 -108.043 -0.000539582 -0.00106287 -0.000237254 
2562 95 1 -183.298 -87.7221 -30.0216 -0.000127399 -0.00258678 -0.00081954 
2327 87 1 -185.39 -169.544 -108.581 -0.000545857 -0.00063705 -0.00092547 
2328 87 1 -183.166 -170.03 -105.904 0.000547352 -0.000254727 -0.000758726 
2752 102 1 -114.38 57.7947 -34.8376 0.000440761 0.00196892 0.00018923 
2560 95 1 -178.213 -89.6689 -36.383 -0.00054591 -0.0007178 0.000435716 
2561 95 1 -179.384 -88.0567 -32.6699 0.00238259 -0.00270802 -0.00226357 
2330 87 1 -177.547 -170.044 -110.099 0.000601867 0.00063238 -0.000230379 
2332 87 1 -173.472 -167.227 -109.616 -0.000368297 0.000424135 -0.000101217 
2331 87 1 -173.621 -171.504 -109.531 6.20534e-05 -0.00329356 0.0007349 
2333 87 1 -172.791 -163.811 -107.482 0.000645177 0.000724919 -0.000403037 
2559 95 1 -176.916 -86.397 -36.9417 -0.000594482 0.000461872 -0.00156556 
3023 112 1 -170.425 -92.3867 -37.8176 0.00268922 -0.00136552 -0.00108347 
1385 52 1 -170.432 -10.6157 -36.6925 0.000548261 -0.00260971 0.00142147 
3345 124 1 62.7628 -16.7512 -32.298 0.000551653 0.00172919 0.000422946 
1384 52 1 -167.354 -10.7599 -35.1851 0.000624937 -0.00183721 0.000476818 
3344 124 1 64.2123 -13.6324 -30.1224 0.000826166 -0.000720494 0.000494157 
398 15 1 -78.9523 -18.6202 -29.6117 -0.000301326 0.000368143 -0.000171584 
3017 112 1 -160.123 -92.2175 -30.6158 -0.000660353 0.00220387 0.00217217 
1379 52 1 -152.735 -15.6129 -34.6974 -0.00257999 0.000478709 -0.00293677 
1380 52 1 -155.55 -12.5618 -33.5395 -0.00121126 -0.000272176 -0.000186273 
3018 112 1 -159.627 -91.6846 -34.4671 0.000917516 0.00136388 0.00104099 
3019 112 1 -160.462 -95.1317 -36.934 0.00028897 0.00128833 1.5214e-05 
2149 80 1 85.6972 -168.655 -111.069 0.00133301 -0.00135258 0.00106435 
839 32 1 -72.5218 -11.9201 -32.8647 0.000858212 -0.000797874 0.000119061 
840 32 1 -71.4574 -13.1576 -36.3598 0.000263967 -0.0014578 -0.000946327 
2148 80 1 85.2621 -167.029 -107.533 0.00179472 -0.00174609 0.000865654 
400 15 1 -71.7721 -17.0858 -29.7631 0.00209325 0.000584757 -0.00135285 
399 15 1 -75.683 -15.9733 -29.3177 0.000567247 0.00060665 -0.00177979 
838 32 1 -75.0729 -10.7146 -30.9174 0.000694138 -0.000765642 -0.000761219 
1000 38 1 -292.568 -89.0041 -37.2364 0.000214519 0.000703002 -0.00161897 
2152 80 1 95.0175 -165.639 -113.765 -0.00194276 0.00164417 -0.00156357 
2151 80 1 92.9969 -167.782 -111.25 -0.00269233 -0.00183063 0.00170833 
624 24 1 -59.2803 -164.331 -29.9352 0.000317966 0.00166146 -0.00285751 
2150 80 1 90.0508 -168.892 -109.806 -0.000526092 -0.00029335 -0.001028 
3135 117 1 27.9248 57.8053 -109.559 -0.00271027 5.08447e-05 -0.000516938 
2259 84 1 101.602 138.811 -36.3517 0.0026872 -0.000624794 -0.00214193 
2258 84 1 99.5304 138.361 -32.5152 -0.000556833 -0.0026139 -0.00168663 
2257 84 1 99.8497 135.157 -29.6838 -0.00116981 -0.000626327 0.00221627 
2153 80 1 97.0474 -162.77 -112.426 0.00285061 7.12591e-05 -0.00233623 
2254 84 1 104.346 142.067 -30.3487 -0.000971156 0.000846075 0.00120623 
2249 84 1 107.985 139.542 -37.7482 -0.000429524 -3.87412e-05 -0.000877416 
3134 117 1 30.2356 58.4915 -106.651 0.000862848 0.00157125 0.000165606 
2753 102 1 -118.046 58.9016 -33.8555 -0.000103041 0.00225451 0.00123175 
2250 84 1 108.607 142.516 -34.4385 -0.00203509 -0.00375462 0.000991044 
2754 102 1 -116.664 61.7183 -31.6152 0.000583773 -0.000447235 0.00316139 
2253 84 1 109.099 141.317 -29.317 -0.00209599 -0.000148989 -0.000726987 
1154 43 1 -33.7863 -81.0571 -113.93 0.000495299 0.00148646 0.000786122 
1157 43 1 -29.7795 -83.6249 -109.891 -0.000347264 -0.000552112 -0.000276728 
1156 43 1 -31.2969 -79.8867 -109.939 0.00136203 -3.46377e-05 0.00093505 
2564 95 1 -185.802 -81.8799 -29.5793 -0.00027114 -0.00169539 -0.000685841 
2565 95 1 -189.938 -81.1435 -30.9413 0.00137921 0.00110301 -0.000838418 
1153 43 1 -36.508 -84.3048 -112.914 -0.000785042 -0.00130461 -0.000195411 
1155 43 1 -34.3678 -78.3977 -111.399 -0.00169872 -0.000240212 -0.00236471 
2334 87 1 -175.754 -161.616 -105.631 -0.00153694 -9.75492e-05 0.000653729 
1158 43 1 -26.8735 -81.2971 -108.586 -0.000506253 0.0025745 0.00138604 
1159 43 1 -27.3026 -79.3366 -105.845 -0.000318925 0.000202797 0.00100548 
1236 46 1 -102.18 -77.9914 39.8037 0.00127581 0.00108341 0.000960258 
2558 95 1 -174.682 -82.8824 -35.5538 -0.00176265 -0.00116976 -0.000825933 
1234 46 1 -97.7619 -76.6077 39.9674 -0.00069504 0.000441016 -1.22938e-05 
2557 95 1 -172.232 -82.3245 -31.9185 0.00200107 -0.00114527 0.000416855 
1160 43 1 -23.8484 -78.6173 -105.045 0.00110077 0.000685382 -0.00149042 
1402 52 1 -166.621 -1.9377 -36.8811 0.000905058 0.0012646 -0.00185871 
2555 95 1 -165.487 -81.1113 -31.6098 -0.00115445 0.00180233 0.000122298 
1404 52 1 -170.212 -5.43772 -37.8547 -0.000350435 0.0013865 -0.000218614 
2556 95 1 -168.353 -82.9882 -30.0635 0.000651635 0.00101795 0.00118937 
1233 46 1 -95.0488 -76.3391 42.4612 -6.13539e-05 -0.00058906 -0.00135857 
1403 52 1 -166.617 -5.34129 -37.2206 -0.00115077 -0.000238505 -0.00127187 
2554 95 1 -165.249 -78.229 -29.6043 -0.00240757 -0.00178667 -0.00103948 
1383 52 1 -162.855 -8.79745 -34.8362 0.00186056 0.00178795 0.00162595 
1381 52 1 -156.225 -9.20249 -34.0732 0.000285779 -0.00170023 -0.000597378 
1382 52 1 -159.332 -8.19711 -35.9073 -0.00148834 0.000241077 -0.000761907 
1399 52 1 -160.89 -2.59443 -35.5346 -0.000762332 -0.00196704 -0.00080789 
1398 52 1 -157.278 -3.23859 -34.0648 -0.000142252 -0.000968049 8.28204e-05 
2089 78 1 -8.40848 -85.4404 -29.4963 0.000539563 0.000868335 -0.0011672 
1730 65 1 -77.966 -80.9015 -28.7416 -0.0011205 0.00110164 -0.00231047 
2090 78 1 -8.11437 -81.7515 -29.9732 -0.00186319 0.00067502 -0.000489633 
1397 52 1 -153.66 -1.07424 -35.2586 0.0020699 9.49029e-05 -0.00114137 
316 12 1 5.20727 -0.00214347 42.4557 0.00178459 0.000544961 -0.000425794 
1865 70 1 -73.0896 -6.09939 40.231 4.53358e-05 0.00213077 -0.000421224 
1864 70 1 -76.0954 -8.09308 39.5795 -0.000845033 -0.000729641 -0.000148551 
2145 80 1 84.9253 -160.851 -112.355 -0.000546012 -0.000738349 0.000445078 
2146 80 1 85.0488 -162.018 -107.757 -0.00176151 -0.00260762 0.00211645 
317 12 1 2.83365 -3.06524 44.2834 0.00195722 0.00037525 -0.0014346 
315 12 1 9.08052 -0.701833 40.8882 0.00217759 -0.000663756 0.000894859 
318 12 1 4.95069 -1.02427 47.5847 0.00098626 0.000728552 0.000752177 
313 12 1 11.8307 -0.903612 44.0861 0.00111315 -0.000391323 -9.56078e-05 
2144 80 1 87.758 -157.702 -113.977 0.00205204 0.00128513 0.000378506 
312 12 1 14.8793 -3.49736 46.1184 -0.000832918 0.000448851 -0.000873745 
622 24 1 -61.0181 -160.094 -34.5753 0.00152917 -7.24092e-05 -0.00106845 
2770 103 1 17.5121 -1.4612 41.6176 -0.00031205 -0.00128048 -0.00214209 
2771 103 1 18.8842 -4.84875 39.0331 -0.00103526 -0.000571164 0.000296313 
623 24 1 -61.9879 -161.314 -31.0298 0.000819554 -0.000479157 -0.00261737 
2769 103 1 21.4146 -1.21372 42.8993 -0.0030589 4.10285e-05 0.00011268 
2154 80 1 98.1652 -161.014 -108.184 0.001131 -0.000103527 0.000831213 
2155 80 1 100.206 -157.78 -107.66 0.000163871 0.000421754 -0.00191808 
2156 80 1 104.305 -157.891 -108.375 -0.000462498 0.00284844 0.00206888 
2768 103 1 21.0614 -0.738457 46.9554 -0.000121831 0.000127569 0.00103513 
2159 80 1 112.335 -154.714 -112.312 0.00115278 0.00153092 -0.00244743 
2251 84 1 111.257 145.124 -34.1345 -0.000641842 0.00155155 0.00112978 
2252 84 1 109.422 145.887 -30.5322 0.00100217 0.000190097 -2.23839e-06 
2157 80 1 106.995 -155.781 -110.538 -0.00149386 -0.00125817 0.000700553 
2485 93 1 109.755 -1.57986 -105.571 -0.00163856 -0.00157437 0.000414135 
1274 48 1 -184.001 7.28837 199.094 -0.00137291 0.00233151 -0.000579201 
1238 46 1 -106.788 -74.1474 42.2298 -0.000616089 0.000467143 0.00119092 
1239 46 1 -109.85 -71.3566 41.5875 0.00279602 -0.00156023 0.00189492 
1605 60 1 -37.9676 4.60909 -258.722 0.00127334 0.00107445 0.00108518 
1240 46 1 -109.098 -67.7088 41.5911 0.00209187 -0.00196244 0.000472541 
1604 60 1 -37.4768 1.03173 -259.805 0.00145531 -0.000413935 0.00446838 
1275 48 1 -179.883 7.28772 197.683 -0.00153278 0.00082784 0.00104991 
1237 46 1 -102.97 -75.5628 43.2145 0.000793798 -0.00137641 0.00132701 
1276 48 1 -180.152 4.59229 199.948 -0.000582643 -0.00233395 0.00302628 
1278 48 1 -174.601 2.4094 199.272 0.000273723 -0.00220884 -0.00210901 
1227 46 1 -99.2204 -71.0454 41.1019 -0.000204747 0.00189547 0.000647626 
1226 46 1 -103.139 -70.3436 39.7969 -0.00233713 0.000570787 0.00102351 
1231 46 1 -90.8073 -70.5578 39.2666 -0.00290237 0.000649501 -0.00103927 
1232 46 1 -93.8021 -71.6889 41.3815 0.000455602 0.000228065 -0.00113867 
1279 48 1 -171.438 4.47531 198.958 -0.000399383 0.00120545 0.00105921 
1280 48 1 -169.014 7.4817 199.566 -0.00114169 0.000634379 -0.000771243 
2546 95 1 -163.75 -72.2291 -29.611 0.00169409 6.04658e-05 -6.00796e-05 
1401 52 1 -165.117 1.32371 -34.0702 -0.000863528 -7.02512e-06 0.00212746 
2543 95 1 -161.853 -70.0722 -34.4057 0.000142985 0.00274959 -0.000391624 
2544 95 1 -161.123 -68.7904 -30.4839 -0.00214571 -0.000632893 0.00054302 
2545 95 1 -159.766 -72.365 -29.4598 -0.000666285 -0.000139543 -0.00194225 
1745 65 1 -80.5549 -69.5933 -33.4847 0.000916774 -0.00126073 -0.000378337 
1746 65 1 -80.0169 -72.9786 -35.6729 0.000489084 0.0020031 0.00169413 
1400 52 1 -161.099 0.691327 -33.4327 -0.000784915 -0.000707986 -0.000509492 
1744 65 1 -78.3591 -67.846 -30.1252 -0.000191476 -0.00015135 0.000138609 
2093 78 1 -1.38729 -75.2408 -29.446 0.000996938 -0.000922394 -0.00278652 
2542 95 1 -161.347 -68.9423 -38.1047 0.000483596 0.0016481 0.000844734 
2844 106 1 -146.138 -67.8333 -263.632 0.00132573 -3.84947e-06 0.00304619 
2095 78 1 4.65482 -71.8833 -30.4036 -4.88913e-05 -0.00372814 0.000144333 
2843 106 1 -150.412 -67.9304 -264.383 -0.00121933 0.000156346 0.0011742 
1876 70 1 -71.2338 4.16496 38.2182 -0.00281068 -0.000620809 -0.00311842 
2094 78 1 0.80494 -71.8009 -31.4258 -0.00132377 0.000648739 0.000183217 
2096 78 1 7.40215 -68.5906 -28.6015 0.00193393 -6.44769e-05 0.000453618 
2845 106 1 -142.543 -68.2202 -263.33 -8.85809e-05 -0.0017254 -0.000360048 
314 12 1 10.5441 2.56225 43.1647 -0.00283926 0.00202926 1.28065e-05 
2847 106 1 -137.196 -72.3375 -259.504 -0.00121407 -7.67874e-06 -0.000613349 
373 14 1 13.9696 3.00767 39.2288 -0.0020509 -0.000401724 0.0025186 
2645 98 1 -60.8203 84.6426 39.4172 0.00265677 5.44043e-05 0.000455228 
372 14 1 18.0346 2.84129 38.7204 0.000790811 -0.00132525 0.000458865 
2846 106 1 -139.568 -69.2332 -259.813 -0.000197394 -0.00188358 0.00251271 
2855 106 1 -130.753 -71.767 -261.695 0.000350103 0.000875751 0.00120722 
2851 106 1 -127.52 -70.9106 -257.997 0.000255364 0.000142638 -0.00210231 
2854 106 1 -127.975 -72.6423 -263.671 -0.000115144 -0.00143173 -0.000518802 
2856 106 1 -131.133 -68.0806 -261.807 0.00135591 0.00120878 0.000378815 
2852 106 1 -125.973 -74.6173 -259.312 -0.00116524 -0.000230537 -0.00030576 
1595 60 1 -48.4893 7.80261 -263.325 -0.00125873 0.00271146 -0.00026511 
2853 106 1 -125.629 -75.7122 -263.057 0.000344681 0.000600108 -0.0014524 
1594 60 1 -45.4545 5.36325 -262.131 -0.00315873 -0.00167719 -0.00111702 
2158 80 1 109.479 -152.474 -111.02 9.66467e-05 0.00151264 0.000657305 
1601 60 1 -39.5 8.68976 -263.413 0.00107386 0.00141225 0.00129154 
1603 60 1 -38.5284 2.89536 -263.339 -0.000292636 -0.00221973 -0.000412274 
1602 60 1 -39.7013 5.65577 -266.527 0.00238461 -0.00195202 0.0015453 
1220 46 1 -109.901 -57.6404 43.1514 -0.00216145 0.000120542 0.000105596 
1221 46 1 -108.173 -61.471 42.1777 -0.00357342 -4.77609e-05 -0.00144822 
1272 48 1 -186.858 12.233 198.807 -0.00131545 0.000467443 -0.00027652 
1271 48 1 -188.795 15.9421 200.071 -0.000141072 -0.00176286 -0.00172395 
3165 118 1 123.437 -58.8187 -105.875 0.00127511 -0.000306676 0.0015874 
1023 38 1 -257.449 -59.4523 -37.6626 -0.0010143 -0.000119297 0.000607481 
1224 46 1 -104.186 -66.6471 38.1625 0.00114316 -0.00213659 0.000511243 
1222 46 1 -104.729 -62.983 43.3841 3.66213e-05 -0.00103609 0.000284292 
1223 46 1 -101.881 -63.5934 40.3839 0.000782574 -0.00278698 -0.00173275 
1191 45 1 -100.08 -64.9572 -181.875 -0.000155652 0.00211842 -0.000179671 
3166 118 1 126.661 -58.4713 -107.47 0.00240936 0.00185241 -0.00170154 
1082 41 1 56.4001 -60.639 -106.88 0.00060075 0.00274166 0.000337201 
1196 45 1 -98.7835 -58.8921 -188.06 0.00013157 0.00203211 -7.2397e-05 
1192 45 1 -98.0009 -66.1108 -184.886 -0.00187758 0.00173636 -0.000759073 
1194 45 1 -94.2399 -61.7898 -189.117 -0.000916222 -0.00123031 -0.00274772 
1193 45 1 -94.2142 -65.1922 -187.022 -0.00294173 5.28715e-06 0.000598125 
1083 41 1 59.7954 -62.4949 -106.577 -0.000927651 -0.00133489 -0.00178632 
1088 41 1 61.5596 -58.136 -109.969 0.000344554 -0.000823684 0.000358477 
1085 41 1 64.129 -66.1199 -109.517 -0.00140823 0.000472221 -0.00232391 
1090 41 1 65.9887 -58.0889 -105.568 0.00260577 -9.59867e-05 -0.00152763 
1087 41 1 63.8598 -59.6947 -112.994 0.000240608 0.00087943 0.000782602 
1084 41 1 64.0509 -62.7325 -106.959 0.00289022 -0.000194728 0.00172492 
1086 41 1 63.6972 -63.8393 -113.005 0.00115838 0.00125463 -0.00140384 
1093 41 1 71.2325 -64.5782 -111.938 0.00237593 -0.000902399 -0.000294984 
1091 41 1 67.3179 -58.5859 -109.1 -0.00216659 0.000788874 0.00146036 
1092 41 1 69.4659 -61.4072 -110.983 -0.000306351 -0.00108368 -0.00117532 
1096 41 1 73.6691 -58.4159 -111.602 4.90699e-05 -0.00167224 0.00103681 
2838 106 1 -156.296 -61.2045 -259.325 -0.00172332 0.00104739 0.00103134 
1094 41 1 75.162 -63.5975 -111.589 0.000322414 0.000211759 0.00176988 
2839 106 1 -152.771 -61.8928 -258.553 0.000846522 -0.00163036 0.00177279 
1095 41 1 77.453 -60.3196 -112.467 0.000183345 0.00181011 0.0001764 
2842 106 1 -149.57 -65.2994 -261.24 -0.0012798 0.000121284 -0.000652009 
3132 116 1 156.021 -57.4129 -30.8674 0.00126296 -0.00266779 0.000684821 
1880 70 1 -68.4177 14.1746 39.2931 -0.00241166 0.00180317 0.00194508 
2841 106 1 -148.449 -63.9223 -257.633 0.000489436 -0.000821792 -0.00202247 
2862 106 1 -142.527 -62.8053 -259.547 1.81991e-05 0.00197754 0.000688281 
1121 42 1 -64.7612 -57.2471 -263.887 0.000720958 0.000519628 -0.0015403 
2643 98 1 -59.2974 91.3789 39.3772 -0.00331937 0.00155935 -0.00026615 
2860 106 1 -136.142 -63.8131 -258.362 -0.00109175 -0.00186521 -0.000105264 
2859 106 1 -134.363 -60.2919 -259.365 -0.000999148 0.000350046 -0.00182654 
2644 98 1 -61.6866 88.4004 39.1623 0.0012525 -0.00108413 -0.000462571 
2861 106 1 -139.379 -63.8505 -260.922 0.000981335 -0.00283933 -0.000919858 
2857 106 1 -128.468 -65.1571 -260.898 -0.00172188 0.00167829 0.00354913 
3217 120 1 101.651 170.573 -37.1809 -0.000551202 -0.000725421 0.00033183 
1596 60 1 -48.5515 11.1719 -264.871 0.000856058 0.00211755 0.000330016 
2858 106 1 -131.411 -62.012 -262.196 -0.000623856 -0.00103417 -0.000665427 
666 25 1 25.0959 -60.9881 123.466 0.00253735 0.00111468 -0.00159405 
667 25 1 26.8614 -60.1064 119.864 -3.08098e-05 -0.00125541 0.000600165 
665 25 1 22.6193 -57.8673 122.095 -0.0017584 0.00124074 -0.000661233 
3219 120 1 98.3608 163.959 -38.0407 -0.000814133 -0.000472828 0.00136218 
1597 60 1 -45.025 11.4295 -263.354 -0.0004257 -0.00131026 0.000778069 
1598 60 1 -46.121 12.4318 -259.705 0.00257471 0.00170567 0.000137508 
668 25 1 29.7058 -58.5305 118.519 -0.00153953 0.000788791 -0.000897622 
1600 60 1 -39.1015 12.178 -260.767 -0.00160709 -0.000306301 0.000871004 
1599 60 1 -42.2789 14.5776 -259.872 -1.85821e-05 0.00147204 -0.00108436 
832 31 1 -40.2317 18.5704 -110.082 4.59958e-05 0.0011584 0.000448286 
831 31 1 -38.6335 15.7106 -112.676 -0.00178757 -0.00107127 0.000937789 
830 31 1 -42.8156 15.0938 -113.667 -0.000644505 0.000611843 -0.000243956 
231 9 1 -33.6496 22.891 38.7878 0.00169074 -0.00079958 -0.00105367 
1219 46 1 -112.226 -54.2029 43.0371 0.00182122 -7.13992e-05 -0.00220821 
1200 45 1 -109.229 -52.7611 -181.995 0.000436302 -0.000496987 7.79587e-05 
1199 45 1 -105.913 -52.1671 -184.917 -8.11391e-05 -0.00021414 -0.000910633 
1198 45 1 -104.69 -54.6632 -187.314 0.000684424 -0.000758773 0.00160622 
1197 45 1 -100.438 -55.4123 -188.699 0.000832162 0.00116891 0.00105847 
3181 118 1 129.067 -50.6432 -110.078 0.001456 0.000550364 0.000124449 
3180 118 1 126.238 -49.5321 -113.567 0.000448525 0.000451825 0.000929079 
3170 118 1 133.16 -52.1134 -113.24 -0.000919842 -0.000762432 -0.00189748 
3167 118 1 128.764 -55.1514 -106.249 0.000525309 -0.00207084 0.000385205 
3168 118 1 132.936 -54.5703 -106.388 -0.00155266 0.000679306 0.000484058 
3182 118 1 128.775 -49.6119 -106.7 -0.00162337 -0.000844368 -0.000597159 
3169 118 1 134.513 -52.6856 -110 0.000374884 -0.00207843 -0.00135374 
3124 116 1 139.563 -51.1955 -30.7749 0.000993583 0.000572926 -0.000904616 
1089 41 1 62.7465 -56.2287 -106.865 0.00227011 -0.00114462 0.000830258 
3174 118 1 138.681 -50.0611 -112.259 0.000997761 0.00345324 0.00161405 
3173 118 1 141.011 -52.6734 -114.304 0.00065221 -0.00039638 0.000686522 
2575 96 1 69.4576 21.1561 -36.5733 0.000678923 -0.00200919 0.000342354 
1097 41 1 74.2833 -55.6228 -108.359 0.000527543 -0.00144977 0.00174931 
2573 96 1 70.3879 26.0617 -34.1683 -0.000379365 0.00172713 0.000120427 
2574 96 1 68.8428 22.6463 -32.7219 -0.000498095 -0.00072432 -0.00129417 
29 2 1 -152.643 -129.056 -36.4388 0.000109007 -0.00116038 0.00175942 
3127 116 1 150.003 -49.5869 -29.474 -0.00150721 -0.00285738 -0.000137844 
3125 116 1 143.473 -50.0611 -29.3756 0.00294305 7.55678e-05 -0.00132652 
1098 41 1 71.5821 -56.2549 -105.262 -0.00141433 -0.000629144 -0.000790637 
30 2 1 -148.84 -130.905 -35.6886 -0.000540719 -0.0020341 0.000797383 
31 2 1 -145.082 -130.246 -36.1446 -0.000189063 -5.41257e-05 0.000212892 
381 15 1 -74.8398 -48.5711 -33.4313 -0.000104522 0.000426725 0.00224084 
380 15 1 -73.215 -51.8024 -30.9183 0.00251857 -0.00251971 1.05976e-05 
1120 42 1 -66.2495 -56.6929 -260.113 0.00260724 0.000982317 -0.00117805 
32 2 1 -142.879 -126.871 -36.6853 -0.00294376 -0.00093491 6.97701e-05 
937 35 1 -58.6666 -50.0835 114.965 0.000152225 -0.00257301 -0.000725277 
3215 120 1 94.5827 173.527 -33.4101 2.66611e-05 0.00026172 -0.000319622 
3214 120 1 94.4082 177.597 -32.8715 0.00103804 0.000908395 0.000895084 
1119 42 1 -62.8845 -56.623 -257.572 -0.000711729 -0.000951001 0.000754421 
2403 89 1 -139.495 24.5477 -107.66 -5.14365e-05 0.000751456 -0.0013685 
3216 120 1 97.6892 172.152 -36.2118 0.00208353 0.00125096 0.000770263 
671 25 1 24.4936 -52.1595 117.468 -0.000564735 -0.000126348 0.000503474 
670 25 1 27.7634 -53.8261 116.09 -0.00182048 0.000853546 -0.00045172 
2823 105 1 26.3178 -48.605 -30.5449 0.000879546 0.000390287 -0.000861293 
664 25 1 24.5235 -53.9038 123.41 -0.00074203 0.00137217 0.00200219 
1218 46 1 -114.758 -51.1415 42.0012 0.000969457 0.00336278 3.80765e-05 
662 25 1 31.7763 -56.4795 123.306 -0.000985257 0.000887285 -0.00115224 
669 25 1 31.1955 -54.6472 117.361 0.00175524 -0.000974436 -0.000135021 
663 25 1 28.9706 -53.3734 123.438 -0.000325577 -2.28372e-05 -0.000882727 
1217 46 1 -118.37 -50.1258 44.3313 0.000790926 0.00238348 -0.000348154 
833 31 1 -39.8759 20.5752 -113.19 -0.00024266 -0.000230338 -0.00157103 
1216 46 1 -116.69 -52.975 46.2814 -0.000652594 -0.000538649 -0.00114224 
2128 79 1 44.4946 -39.2262 38.4894 0.000250425 0.00154671 0.00111482 
922 35 1 -34.7159 -47.4241 117.428 -2.69187e-06 -0.00139804 -0.000339899 
921 35 1 -31.6985 -45.8805 116.014 -0.000855031 -0.00027941 0.00145898 
2133 79 1 38.4046 -41.3934 44.7612 -0.00165363 -0.000525067 0.000864808 
1202 45 1 -108.462 -45.1301 -183.748 0.000580835 -0.000733176 0.00109501 
1203 45 1 -105.126 -44.1057 -183.031 -0.000974971 0.000548342 -0.00038082 
2129 79 1 43.0098 -41.0661 41.6992 -0.000546279 -0.00220606 -0.00156994 
3112 116 1 115.356 -46.9429 -29.1769 0.000231059 0.00190595 0.000347293 
2130 79 1 40.7382 -42.1079 38.5199 0.00136256 0.00194637 0.00088689 
703 27 1 124.118 -115.331 -109.3 -0.00173574 -0.00084462 -0.00193245 
704 27 1 126.704 -117.036 -111.809 0.000779241 -0.000112384 0.000613256 
705 27 1 130.077 -115.29 -111.948 0.000684283 -0.00049972 -0.00169805 
3177 118 1 132.759 -43.691 -108.413 -0.0016094 0.00125498 0.00140924 
1204 45 1 -103.462 -45.3752 -185.839 -0.00146182 -0.000631637 -0.00015708 
1205 45 1 -101.03 -43.7396 -183.338 0.000514876 0.00237905 -6.19026e-05 
3178 118 1 131.598 -46.2478 -110.987 -0.001344 -0.000459856 0.00229977 
1206 45 1 -99.3913 -40.73 -182.212 0.000711492 -0.00305328 -0.00148899 
3179 118 1 128.779 -46.3887 -114.216 0.00139083 0.00114281 -0.00060923 
707 27 1 135.778 -115.015 -110.447 4.13852e-06 -0.000625413 0.000389531 
3175 118 1 138.97 -46.9281 -110.009 0.00179967 0.00185469 -0.00134659 
3176 118 1 135.542 -45.9953 -107.117 0.00107898 0.00132078 -0.00216924 
708 27 1 137.03 -115.402 -107 -0.000475525 0.00125928 0.000746568 
388 15 1 -86.7068 -42.3834 -34.0124 -0.00184276 -0.000616268 -0.000962207 
387 15 1 -86.0409 -44.5338 -30.4602 -6.44228e-05 -0.00021202 0.000508832 
1269 47 1 -9.97953 36.9297 -28.9813 -0.000459072 0.000663114 0.000442958 
2572 96 1 69.0985 29.8952 -34.0806 0.00161938 0.000637611 0.00229539 
2571 96 1 67.8655 29.4729 -37.6677 0.00104208 -8.99185e-05 -0.000524717 
385 15 1 -81.1362 -40.5976 -32.3166 0.00146985 -0.00121457 2.53227e-05 
386 15 1 -81.7282 -42.8686 -29.3819 0.00131933 -0.00172542 0.000347807 
382 15 1 -77.4903 -46.7713 -33.9987 0.000768181 0.000478762 0.000157069 
384 15 1 -80.4909 -40.8196 -36.8955 0.000494415 -0.001287 0.000495989 
383 15 1 -78.0791 -44.2306 -37.0674 0.000620061 -0.00177872 -2.33718e-05 
389 15 1 -85.7579 -39.0146 -35.3419 0.00129013 -0.000387429 -0.0012236 
3147 117 1 7.15361 37.6274 -106.285 -0.0004879 0.00109649 -0.00091481 
2216 83 1 2.73618 -119.598 -34.2954 -0.000677349 -0.0019997 0.000674834 
56 3 1 81.6399 -45.0232 -105.978 -0.0024697 0.000582431 -0.0023432 
57 3 1 83.4495 -46.6646 -108.705 -0.0016136 0.000112023 -0.00237288 
58 3 1 85.0363 -44.1917 -111.626 -0.000389653 -2.627e-05 -0.000568064 
2215 83 1 4.78873 -115.871 -36.1136 -0.00342657 -0.000284287 0.000803395 
2217 83 1 1.44368 -117.851 -31.0606 0.00212393 -0.00132527 0.00103762 
59 3 1 87.838 -42.6859 -114.105 -0.0014765 -0.0007676 0.000623161 
63 3 1 88.4359 -42.4715 -106.437 -0.000257356 0.000203126 0.00105026 