LAMMPS (5 Feb 2018)
units           lj
atom_style      atomic
lattice         fcc 0.8442
Lattice spacing in x,y,z = 1.6796 1.6796 1.6796
region          box block 0 20 0 20 0 20
create_box      1 box
Created orthogonal box = (0 0 0) to (33.5919 33.5919 33.5919)
  1 by 1 by 2 MPI processor grid
create_atoms    1 box
Created 32000 atoms
  Time spent = 0.00182319 secs
mass            1 1.0
velocity        all create 1.44 87287 loop geom
pair_style      lj/cut 2.5
pair_coeff      1 1 1.0 1.0 2.5
neighbor        0.3 bin
neigh_modify    delay 0 every 20 check no
fix             ensemble_all all nve
run             100
Neighbor list info ...
  update every 20 steps, delay 0 steps, check no
  max neighbors/atom: 2000, page size: 100000
  master list distance cutoff = 2.8
  ghost atom cutoff = 2.8
  binsize = 1.4, bins = 24 24 24
  1 neighbor lists, perpetual/occasional/extra = 1 0 0
  (1) pair lj/cut, perpetual
      attributes: half, newton on
      pair build: half/bin/atomonly/newton
      stencil: half/bin/3d/newton
      bin: standard
Per MPI rank memory allocation (min/avg/max) = 7.509 | 7.509 | 7.509 Mbytes
Step Temp E_pair E_mol TotEng Press 
       0         1.44   -6.7733681            0   -4.6134356   -5.0197073 
     100    0.7574531   -5.7585055            0   -4.6223613   0.20726105 
Loop time of 1.34548 on 2 procs for 100 steps with 32000 atoms

Performance: 32107.398 tau/day, 74.323 timesteps/s
95.1% CPU use with 2 MPI tasks x no OpenMP threads

MPI task timing breakdown:
Section |  min time  |  avg time  |  max time  |%varavg| %total
---------------------------------------------------------------
Pair    | 1.0293     | 1.0305     | 1.0317     |   0.1 | 76.59
Neigh   | 0.14165    | 0.14324    | 0.14483    |   0.4 | 10.65
Comm    | 0.10715    | 0.11034    | 0.11353    |   1.0 |  8.20
Output  | 0.00011844 | 0.00022968 | 0.00034093 |   0.0 |  0.02
Modify  | 0.031759   | 0.034215   | 0.036671   |   1.3 |  2.54
Other   |            | 0.02698    |            |       |  2.01

Nlocal:    16000 ave 16001 max 15999 min
Histogram: 1 0 0 0 0 0 0 0 0 1
Nghost:    13632.5 ave 13635 max 13630 min
Histogram: 1 0 0 0 0 0 0 0 0 1
Neighs:    601416 ave 605200 max 597633 min
Histogram: 1 0 0 0 0 0 0 0 0 1

Total # of neighbors = 1202833
Ave neighs/atom = 37.5885
Neighbor list builds = 5
Dangerous builds not checked
Total wall time: 0:00:01
